################################################################################
# Symmetry function scaling data.
################################################################################
# Col  Name     Description
################################################################################
# 1    e_index  Element index.
# 2    sf_index Symmetry function index.
# 3    sf_min   Symmetry function minimum.
# 4    sf_max   Symmetry function maximum.
# 5    sf_mean  Symmetry function mean.
# 6    sf_sigma Symmetry function sigma.
#########################################################################################################################
#        1          2                        3                        4                        5                        6
#  e_index   sf_index                   sf_min                   sf_max                  sf_mean                 sf_sigma
#########################################################################################################################
         1          1   8.5614354845692398E-03   1.0300045939356600E-01   3.2312495845918394E-02   6.3897621447096724E-03
         1          2   7.2483574868800180E-02   2.2703756108159223E-01   1.5404695635221471E-01   9.3633093218428894E-03
         1          3   0.0000000000000000E+00   1.3745639214836484E-02   1.2601612073781580E-05   9.1616830445558523E-05
         1          4   0.0000000000000000E+00   2.1083174573925261E-02   2.0191738740809613E-04   7.3574471365380541E-04
         1          5   7.2634768860389998E-02   4.2224736616281316E-01   1.8970407423572636E-01   3.0796609557654165E-02
         1          6   2.6252422147028992E-01   5.2813406127538576E-01   3.5944707090571404E-01   3.4620716901341130E-02
         1          7   0.0000000000000000E+00   9.0792542123535894E-02   3.3269319672998046E-04   1.2584272815387078E-03
         1          8   0.0000000000000000E+00   1.1825866811104732E-01   2.5663039022911106E-03   7.6999385658049870E-03
         1          9   2.1903892008487316E-01   1.0906571982459292E+00   5.3757642590939969E-01   1.1006222478422421E-01
         1         10   2.2275852308621705E-01   6.2416315498450425E-01   4.0000508244075067E-01   8.2169271145834277E-02
         1         11   0.0000000000000000E+00   2.2061799932277204E-01   3.7866161142617381E-03   9.4780354664064058E-03
         1         12   0.0000000000000000E+00   2.4402568733101646E-01   1.3235256087549096E-02   3.3106435797815380E-02
         1         13   1.8113278051054715E-01   1.6793972955150365E+00   9.2067379599404586E-01   1.9962093944272202E-01
         1         14   7.3857861825487425E-02   7.8760149358920828E-01   3.8020054421808802E-01   1.0178006304550920E-01
         1         15   0.0000000000000000E+00   3.3825547928631083E-01   1.8454867400174445E-02   3.5680336724343495E-02
         1         16   0.0000000000000000E+00   3.4657647376929529E-01   2.9783794938078544E-02   6.0543516735835412E-02
         1         17   1.3553708981177939E-01   1.9244468056329584E+00   1.1264201643654075E+00   2.1781732193816961E-01
         1         18   4.4117589701607347E-02   1.0107477764321167E+00   5.0105507647986491E-01   1.2248802582534467E-01
         1         19   0.0000000000000000E+00   4.4152749410764475E-01   3.9331849130542995E-02   6.3292290368981791E-02
         1         20   0.0000000000000000E+00   3.4845906786589997E-01   3.6058236170989133E-02   5.5016751163959890E-02
         1         21   2.4126644760185667E-01   1.7778525601036799E+00   1.0796726455523917E+00   1.8228936569279691E-01
         1         22   9.4839762406621425E-02   1.0035811258582876E+00   5.7448678740012016E-01   1.0592026339568321E-01
         1         23   0.0000000000000000E+00   3.4697310029412454E-01   3.9705501490691748E-02   5.4447898583652739E-02
         1         24   0.0000000000000000E+00   3.1864112225228947E-01   3.3165475357830640E-02   4.1544169378630529E-02
         1         25   2.4492589506812396E-01   1.2681720037459887E+00   8.1359742974247207E-01   1.2237680045295779E-01
         1         26   8.0028958391058821E-02   7.3674565548218551E-01   4.2893240457513776E-01   7.1538800056965682E-02
         1         27   0.0000000000000000E+00   2.0327359803142500E-01   2.3727527411299843E-02   2.7955550528762727E-02
         1         28   0.0000000000000000E+00   1.9109347619725661E-01   2.5030300505863187E-02   2.9280482289385710E-02
         1         29   1.8415213896018218E-01   7.0674975531621542E-01   4.4851903719215003E-01   6.4099230546907721E-02
         1         30   4.2159286383257236E-02   3.7127668692771021E-01   2.2119906426672933E-01   3.6440534196820813E-02
         1         31   0.0000000000000000E+00   1.0091451467579816E-01   1.1788896510722768E-02   1.3277228326092792E-02
         1         32   0.0000000000000000E+00   1.1443715238711316E-01   1.3546433998898872E-02   1.4877431149432074E-02
         1         33   7.4231956744799599E-02   2.7040682089125040E-01   1.7208590179289715E-01   2.4237108134253605E-02
         1         34   2.3845509623914990E-02   1.4597230837702665E-01   8.3371030680758559E-02   1.4446142883487730E-02
         1         35   0.0000000000000000E+00   4.8324967386538985E-02   4.9663061012436074E-03   5.5088107561753882E-03
         1         36   0.0000000000000000E+00   3.8908432238864914E-02   5.0960608954190075E-03   5.4636614692736016E-03
         1         37   1.7140084409702445E-02   7.0069960502113796E-02   4.2937729791234197E-02   6.2114783629693953E-03
         1         38   5.3909681798462381E-03   3.7649703432391664E-02   2.1151971719948062E-02   3.9969283151891589E-03
         1         39   0.0000000000000000E+00   1.0925414998555497E-02   1.3665016492213687E-03   1.4806216289948641E-03
         1         40   0.0000000000000000E+00   9.7021630687126308E-03   1.2686299507307505E-03   1.3696739499778840E-03
         1         41   7.1414554204253728E-04   7.1385313544037113E-02   2.3160171075986186E-02   8.5470392537613984E-03
         1         42   5.9506863830469650E-03   1.0266346260175319E-01   4.2842444651840561E-02   1.3236298152190061E-02
         1         43   0.0000000000000000E+00   1.3308767977622215E-02   8.0827873653493878E-04   1.3198327634798561E-03
         1         44   0.0000000000000000E+00   2.0155238703515654E-02   1.2265984559010560E-03   2.3456671468645718E-03
         1         45   3.8774028967327199E-04   3.5105269929821055E-02   1.4563787754546876E-02   5.9421191553854450E-03
         1         46   0.0000000000000000E+00   1.7135314117890117E-02   7.1603410795833601E-04   1.3042089751947833E-03
         1         47   0.0000000000000000E+00   1.6909521610832676E-02   1.2157335670511331E-03   2.3409741628290545E-03
         1         48   0.0000000000000000E+00   8.5172578153357506E-04   8.5471730227606727E-06   3.7895578348515782E-05
         1         49   0.0000000000000000E+00   3.3427726999505380E-03   3.4039902015930052E-05   1.2664906622185173E-04
         1         50   0.0000000000000000E+00   9.7855714523578012E-04   3.8871700897959035E-06   2.8541063772787127E-05
         1         51   2.8628120145804603E-03   1.5515660067656592E-01   6.1224215211076190E-02   1.9411522391846157E-02
         1         52   4.7352411778073804E-02   2.9846194150883248E-01   1.5575483595573766E-01   3.4093721038370550E-02
         1         53   0.0000000000000000E+00   1.9849709701936277E-02   1.7850850341784303E-03   2.5578230823943716E-03
         1         54   0.0000000000000000E+00   3.0881473668069863E-02   3.0318764115944549E-03   4.4488874499822532E-03
         1         55   7.9698069823608394E-04   3.4955777768118097E-02   1.4114626091141835E-02   4.4254802650130019E-03
         1         56   0.0000000000000000E+00   2.8067314358395126E-02   2.4519263855226070E-03   3.8967886296761450E-03
         1         57   0.0000000000000000E+00   8.0137797797270455E-03   8.5874610763756506E-04   1.1065122416177204E-03
         1         58   0.0000000000000000E+00   1.3894722856665719E-03   1.4724431154222344E-05   6.6646657593562216E-05
         1         59   0.0000000000000000E+00   5.6617149822840275E-03   8.7583571778206655E-05   2.9682892766366996E-04
         1         60   0.0000000000000000E+00   1.0896766270389962E-03   5.2122242536162347E-06   3.6782629025048508E-05
         1         61   7.6091963438352020E-05   1.7695873267487481E-02   4.2976959468264833E-03   1.9404520392247368E-03
         1         62   2.1666130873418941E-04   3.3831484242977050E-02   1.1968087287335071E-02   5.4352010140056176E-03
         1         63   0.0000000000000000E+00   4.5399437870899855E-03   7.7225214834559857E-05   1.6167278785033949E-04
         1         64   0.0000000000000000E+00   7.2711062863746768E-03   3.1613874925603188E-04   7.6457196691922396E-04
         1         65   2.1552525866100566E-05   2.3415335954125368E-02   7.6466137544487509E-03   4.4631915007288100E-03
         1         66   0.0000000000000000E+00   1.0896827514017224E-02   7.1267449406405800E-05   1.7729533981058912E-04
         1         67   0.0000000000000000E+00   1.3966865358672064E-02   7.3771602448548918E-04   1.7664699136234331E-03
         1         68   0.0000000000000000E+00   2.6597387138965024E-04   7.4648742107661378E-07   4.2271737200001807E-06
         1         69   0.0000000000000000E+00   6.0662730352092106E-04   4.2742428857080578E-06   2.0404307006493507E-05
         1         70   0.0000000000000000E+00   2.3472643319640704E-04   5.4152750020157970E-07   4.1341671053354993E-06
         1         71   1.8754737284558728E-03   8.0766864027930291E-02   3.4169345989798372E-02   1.0101930444405986E-02
         1         72   3.4248441769477285E-02   1.9484029939471884E-01   1.0835336005949252E-01   2.2771367440114147E-02
         1         73   0.0000000000000000E+00   7.8143319313188717E-03   7.3612718163763575E-04   9.8607347020517717E-04
         1         74   0.0000000000000000E+00   1.6272671392281335E-02   1.6996887667342561E-03   2.3145252103395609E-03
         1         75   4.2546425699824291E-04   1.4375078320716751E-02   5.8593457373960368E-03   1.8624730452293057E-03
         1         76   0.0000000000000000E+00   1.4766123045908608E-02   1.3613785634665656E-03   2.1107440687407942E-03
         1         77   0.0000000000000000E+00   3.0692588464831996E-03   3.1463202236316424E-04   3.8171665784064891E-04
         1         78   0.0000000000000000E+00   4.4598044730062184E-04   4.4823625928090074E-06   2.1353564186693691E-05
         1         79   0.0000000000000000E+00   2.7488232483885524E-03   4.2367335161520935E-05   1.3838900967929664E-04
         1         80   0.0000000000000000E+00   2.2755926173725682E-04   1.3656988272384664E-06   9.1088207271653826E-06
         2          1   1.9682510780251228E-01   3.9320160588326042E-01   3.0809391270442932E-01   1.4502692721634165E-02
         2          2   5.6886328173614069E-08   1.3085042300866572E-03   1.6266426682056957E-04   1.1476553580652620E-04
         2          3   0.0000000000000000E+00   6.3814152794552416E-03   1.2188332616983285E-04   3.0572015242920868E-04
         2          4   0.0000000000000000E+00   1.6352915604665817E-04   1.4206247761985465E-06   4.5424196351120168E-06
         2          5   5.8869048293482917E-01   9.2579959027817604E-01   7.1889414181142830E-01   5.1392264120165822E-02
         2          6   7.9478843334650723E-06   2.1349308670088780E-02   4.8608383681423648E-03   2.7320149452050840E-03
         2          7   0.0000000000000000E+00   6.8645238861771721E-02   2.1656448264745338E-03   4.7542414431432948E-03
         2          8   0.0000000000000000E+00   3.9612933912201807E-03   6.8433826391431861E-05   1.7306665132499636E-04
         2          9   4.8217570060129339E-01   1.2082149961610080E+00   8.0001016488150134E-01   1.3133139333142910E-01
         2         10   4.1775704849352294E-04   1.7302989249643730E-01   5.7261310253896469E-02   2.4553438659532412E-02
         2         11   0.0000000000000000E+00   2.7249919129745004E-01   1.5002088600333195E-02   2.9408578449005806E-02
         2         12   0.0000000000000000E+00   3.5300747970230389E-02   1.2931459610283239E-03   2.6772011993988387E-03
         2         13   1.6053013655728379E-01   1.4165568412956036E+00   7.6040108843617604E-01   1.8145630265824980E-01
         2         14   8.3559778679621072E-03   5.9679858833265564E-01   2.7518327153755245E-01   8.4227902791172246E-02
         2         15   0.0000000000000000E+00   4.3321622680760474E-01   4.1412032229379801E-02   7.3772602446315116E-02
         2         16   0.0000000000000000E+00   1.4979492809590733E-01   9.7274060183995242E-03   1.6882620293416237E-02
         2         17   1.3274923918582832E-01   1.7986748419146934E+00   1.0021101529597296E+00   2.1579144291305713E-01
         2         18   6.4878123831784915E-02   1.0257345190821039E+00   5.7961286408833024E-01   1.2330832148341238E-01
         2         19   0.0000000000000000E+00   5.0560730702105150E-01   4.8681102838370849E-02   7.8645646625953719E-02
         2         20   0.0000000000000000E+00   3.0478451912627913E-01   3.0064448520050545E-02   4.4298565067779253E-02
         2         21   3.3899642566233856E-01   1.9801693989926166E+00   1.1489735748002403E+00   1.9406729368346243E-01
         2         22   1.8088789875628566E-01   1.0430416070507498E+00   6.2005512201926472E-01   1.1045593087702009E-01
         2         23   0.0000000000000000E+00   2.9860596164604508E-01   3.1480682602441960E-02   4.2862687021726867E-02
         2         24   0.0000000000000000E+00   3.3133203672997319E-01   4.1061628665215004E-02   5.1589606615146139E-02
         2         25   3.3843879970077850E-01   1.3167807525219233E+00   8.5786480915027552E-01   1.2376634174409415E-01
         2         26   1.2657163846955233E-01   7.1913183104626321E-01   4.2385538625476010E-01   7.0340137423534940E-02
         2         27   0.0000000000000000E+00   1.7116210303194890E-01   1.9745407534148378E-02   2.3999141954903807E-02
         2         28   0.0000000000000000E+00   1.9472913770392353E-01   2.9200656489549608E-02   3.2018124038157438E-02
         2         29   1.9777937149856201E-01   6.6433945468251254E-01   4.4239812853345872E-01   6.1113113317265294E-02
         2         30   7.5422709092719406E-02   3.7643843167318158E-01   2.1836095442905842E-01   3.8441654773911378E-02
         2         31   0.0000000000000000E+00   1.0227909628855661E-01   1.2399535172279321E-02   1.4278780059643130E-02
         2         32   0.0000000000000000E+00   1.0321633011484328E-01   1.4023626479759138E-02   1.4651409580897072E-02
         2         33   7.5497231322733380E-02   2.5781724024338676E-01   1.6674206136151717E-01   2.3851925289504677E-02
         2         34   2.6048924816575423E-02   1.4844944009795330E-01   8.2521091874840621E-02   1.5961230653975887E-02
         2         35   0.0000000000000000E+00   4.0095853433346637E-02   5.2377901449112306E-03   5.6753342258880268E-03
         2         36   0.0000000000000000E+00   4.0805223747738317E-02   5.1897264347789745E-03   5.4491229904750256E-03
         2         37   1.8452570203558765E-02   6.9143495395661281E-02   4.2303943439896123E-02   6.3422120803032916E-03
         2         38   4.5510615195292039E-03   3.6763622118111142E-02   2.0474648386492132E-02   4.0500023968029156E-03
         2         39   0.0000000000000000E+00   1.2460034491210440E-02   1.3155032992468068E-03   1.4159265679028268E-03
         2         40   0.0000000000000000E+00   1.0895681225152604E-02   1.3074902095041262E-03   1.3970627710289635E-03
         2         41   2.9203826377515622E-02   1.6299017664166315E-01   8.6052715479388253E-02   2.0911257796255939E-02
         2         42   1.5113523675569860E-03   5.8073749099412993E-02   2.2116001807936533E-02   7.3079702146537379E-03
         2         43   0.0000000000000000E+00   3.3948236716785901E-02   3.1737737542271343E-03   5.3966483897102940E-03
         2         44   0.0000000000000000E+00   1.0027115425033480E-02   8.1259268090020439E-04   1.1679800447205793E-03
         2         45   3.8523890539227095E-05   5.4548578132091177E-03   1.4560545458367471E-03   6.7730287832419003E-04
         2         46   0.0000000000000000E+00   5.3900255440772898E-03   4.0091237773619254E-04   6.7742430884810197E-04
         2         47   0.0000000000000000E+00   1.2027507285363940E-03   1.1706855983656149E-04   1.5635986076869876E-04
         2         48   0.0000000000000000E+00   2.0495470161189335E-03   2.4255391374293956E-05   1.1112614606108894E-04
         2         49   0.0000000000000000E+00   1.6136945338973523E-03   3.0459372163060895E-05   8.7814030905828010E-05
         2         50   0.0000000000000000E+00   2.4347445082240995E-04   1.4957482733701496E-06   8.3660703513944683E-06
         2         51   2.2520046829944837E-02   2.3094250043280301E-01   1.1254456512819001E-01   2.8269073028833643E-02
         2         52   7.2818942886322046E-03   2.0564565699981127E-01   9.2597653574818306E-02   2.6942477725284450E-02
         2         53   0.0000000000000000E+00   3.0795090352819323E-02   3.1621472327347517E-03   4.7379173623797958E-03
         2         54   0.0000000000000000E+00   3.5140382623895010E-02   3.3363666684771919E-03   4.7482887773083260E-03
         2         55   1.8004494624558487E-04   1.3513056606504670E-02   4.1305755819033892E-03   1.7352965020899394E-03
         2         56   0.0000000000000000E+00   1.8409921584309059E-02   1.5027428543156549E-03   2.3277970355839415E-03
         2         57   0.0000000000000000E+00   2.9239905079800014E-03   3.1846619545905828E-04   3.8709383728290715E-04
         2         58   0.0000000000000000E+00   2.3310051012804872E-03   2.7049091523305669E-05   1.2706655726652384E-04
         2         59   0.0000000000000000E+00   4.5788617254311536E-03   9.1976963116946969E-05   2.6839062771200463E-04
         2         60   0.0000000000000000E+00   4.8753625228136729E-04   2.9104668638810050E-06   1.7432699988518848E-05
         2         61   3.0351930879947884E-03   4.4740151182798456E-02   2.2584647110324041E-02   6.6922816457905118E-03
         2         62   2.2972374336894779E-04   1.2086673272486241E-02   4.6383875336594082E-03   1.6271896601752780E-03
         2         63   0.0000000000000000E+00   1.0971754283322355E-02   9.4995844983360709E-04   1.7320214714344436E-03
         2         64   0.0000000000000000E+00   3.0234337129712309E-03   1.3671526028156435E-04   2.2907883547898270E-04
         2         65   3.6581396909747276E-07   5.4273211343507858E-04   1.0560060014859432E-04   6.7779254993200725E-05
         2         66   0.0000000000000000E+00   6.1340814452805941E-04   3.2374346538467280E-05   6.5425263311305110E-05
         2         67   0.0000000000000000E+00   1.5190447210490683E-04   6.9822866389123028E-06   1.2005442610018982E-05
         2         68   0.0000000000000000E+00   4.5937909945686147E-04   4.1677033417115594E-06   2.0293174733122018E-05
         2         69   0.0000000000000000E+00   2.4378992025590344E-04   2.6601451087020653E-06   9.2132179690835729E-06
         2         70   0.0000000000000000E+00   2.5513801061894641E-05   1.1175107440645839E-07   6.5829600785989147E-07
         2         71   4.1302244816456878E-03   1.0978587314303971E-01   5.0309799330502697E-02   1.3892045933220045E-02
         2         72   5.4124194064150422E-03   1.4680735051161331E-01   6.9982625395906162E-02   1.9902736214604505E-02
         2         73   0.0000000000000000E+00   1.3725173659771122E-02   1.0013131340909345E-03   1.3439586146001921E-03
         2         74   0.0000000000000000E+00   2.5188660040449042E-02   2.3689439756879355E-03   3.5084061521213007E-03
         2         75   9.8569644258230760E-05   6.1758989058787401E-03   1.9989493545956830E-03   8.1072165942167669E-04
         2         76   0.0000000000000000E+00   1.0119770249225385E-02   8.6448760302683240E-04   1.2906074385118707E-03
         2         77   0.0000000000000000E+00   1.3805919851721112E-03   1.4315702156802646E-04   1.6567912360139421E-04
         2         78   0.0000000000000000E+00   5.0357454333923798E-04   5.9504221517714753E-06   2.7291073686489538E-05
         2         79   0.0000000000000000E+00   2.0517705330422623E-03   4.6848067411163385E-05   1.3729583996924637E-04
         2         80   0.0000000000000000E+00   1.6795238900152050E-04   9.8157503087841605E-07   6.2738065110561824E-06
         3          1   1.9039145121312731E-05   1.6142748427944022E-02   3.8995544225413104E-04   5.5197405236179296E-04
         3          2   8.0836521080485086E-05   8.7395309973840318E-03   1.8858327839994691E-03   9.3951261885367456E-04
         3          3   0.0000000000000000E+00   1.9129930469609330E-05   3.8847268126507300E-07   1.5848725288401736E-06
         3          4   0.0000000000000000E+00   1.1942257979157221E-03   3.2502351008781944E-05   7.9939741612102086E-05
         3          5   9.7411522978675289E-04   1.2952936007184046E-01   1.0295152866648135E-02   6.6813596626424535E-03
         3          6   2.9274726480113581E-03   9.2409275682177175E-02   3.3507815552832790E-02   1.3049338238408056E-02
         3          7   0.0000000000000000E+00   7.5492563202686741E-04   2.1639359562714158E-05   7.3758383322433183E-05
         3          8   0.0000000000000000E+00   1.7230216744772462E-02   8.7543896517522097E-04   1.7097486699396082E-03
         3          9   1.8842473836345703E-02   3.9988655785680355E-01   1.1717640194271138E-01   4.3104984230282604E-02
         3         10   3.6165766523846447E-02   4.8253411762888299E-01   2.3211895671071217E-01   6.8830402869843405E-02
         3         11   0.0000000000000000E+00   1.0959734229871849E-02   4.8737384464306636E-04   1.3221964157875501E-03
         3         12   0.0000000000000000E+00   9.7635326384508739E-02   9.4351030528886989E-03   1.4895948057878238E-02
         3         13   1.5360040028269897E-01   1.1783524900442017E+00   5.7108375790660026E-01   1.3849507904763325E-01
         3         14   1.5846791424967949E-01   1.0965202089133061E+00   6.4074529703420979E-01   1.4107399133115797E-01
         3         15   0.0000000000000000E+00   6.2121883007358068E-02   4.6586009340838759E-03   9.3980029516041157E-03
         3         16   0.0000000000000000E+00   3.1552395875235845E-01   4.1433106673177039E-02   5.3945080296155482E-02
         3         17   4.8822599874569378E-01   1.9399890574695970E+00   1.2171195663358507E+00   2.1230688630188868E-01
         3         18   2.0629975236460249E-01   1.1583502334885545E+00   7.5321557573780507E-01   1.3526521367916564E-01
         3         19   0.0000000000000000E+00   1.5877483605255688E-01   2.0190480003051986E-02   2.8113920492988553E-02
         3         20   0.0000000000000000E+00   4.9901502134861109E-01   7.6899813129518574E-02   8.3897197972138932E-02
         3         21   5.9088671134147064E-01   1.8206843860620026E+00   1.2286821958230936E+00   1.7786348793153386E-01
         3         22   2.0608959865588605E-01   8.2881791579268804E-01   4.8708305869208107E-01   8.9861106238966482E-02
         3         23   0.0000000000000000E+00   2.1243876513249890E-01   4.2590456266423840E-02   4.0113082428044476E-02
         3         24   0.0000000000000000E+00   3.0987477464324342E-01   6.7117441662060448E-02   5.9832909781878933E-02
         3         25   3.4353679367369933E-01   1.1733754673259151E+00   7.3424561802860189E-01   1.1059708903763184E-01
         3         26   8.9828969887273930E-02   5.7749575112889251E-01   3.0550968726798228E-01   6.4587890346115839E-02
         3         27   0.0000000000000000E+00   1.6485307635982296E-01   4.6210606952575214E-02   3.3664304415418060E-02
         3         28   0.0000000000000000E+00   1.5166795049838994E-01   3.8902616945857657E-02   2.6600491496546311E-02
         3         29   1.6774811804639414E-01   6.0801178342221729E-01   3.6480605224245216E-01   6.2814967653954390E-02
         3         30   6.5021307875941070E-02   3.4318035133522995E-01   1.9185109784135876E-01   4.3070073181757998E-02
         3         31   0.0000000000000000E+00   9.7391341263143208E-02   2.6817582384934143E-02   1.8610484887024530E-02
         3         32   0.0000000000000000E+00   8.5343698759430153E-02   2.3230327901519122E-02   1.5983562511211025E-02
         3         33   7.8367604802182050E-02   2.4541758719778756E-01   1.5368177347000966E-01   2.7712326074209016E-02
         3         34   2.8697365683466893E-02   1.3350113315280368E-01   8.1041408052972178E-02   1.6756628325899726E-02
         3         35   0.0000000000000000E+00   3.4836542206176338E-02   8.6980558487239866E-03   6.4585249120494371E-03
         3         36   0.0000000000000000E+00   4.0209944933385401E-02   1.1143507920698169E-02   7.5660810027162800E-03
         3         37   1.8442457086103540E-02   7.0649431922341105E-02   4.2286237018182508E-02   7.4537345479094280E-03
         3         38   6.1272251420352534E-03   3.4631214087227288E-02   2.0354049459745671E-02   3.9958961222985260E-03
         3         39   0.0000000000000000E+00   7.2472378086297449E-03   1.6559587008556356E-03   1.4094154750351712E-03
         3         40   0.0000000000000000E+00   1.0405190916196015E-02   3.0124052809675436E-03   2.0046803888579476E-03
         3         41   1.1155099878422236E-03   2.3717822669160095E-02   7.0301694791848803E-03   2.6868327802430066E-03
         3         42   1.4372621559660783E-03   4.0764165228676479E-02   1.2535835078615304E-02   4.8320480818835809E-03
         3         43   0.0000000000000000E+00   2.3446055819085474E-03   2.9423008427489087E-04   3.5169540195117250E-04
         3         44   0.0000000000000000E+00   5.0801821064269106E-03   8.3357605340006718E-04   8.7391891507432188E-04
         3         45   2.5699378090957812E-04   1.7412066397748626E-02   5.5165209902137760E-03   2.4162874785968493E-03
         3         46   0.0000000000000000E+00   2.4691637671820682E-03   2.6240911353988270E-04   3.5870701582936846E-04
         3         47   0.0000000000000000E+00   3.7331621968104516E-03   6.8879881010759365E-04   6.9641389650597699E-04
         3         48   0.0000000000000000E+00   6.9288285557997704E-05   1.9070582273138383E-06   6.1655161978042661E-06
         3         49   0.0000000000000000E+00   7.9942824412820249E-04   3.0205073004526245E-05   6.3696155893734954E-05
         3         50   0.0000000000000000E+00   8.1824682597836167E-04   1.9520988690488003E-05   6.5926330377645941E-05
         3         51   7.8450929700938071E-03   8.8084767826449070E-02   3.3095502943252093E-02   1.0045946108010599E-02
         3         52   2.2671553539649187E-02   1.9304937940583883E-01   8.5496339538886607E-02   2.2103688152403496E-02
         3         53   0.0000000000000000E+00   8.0796565311708497E-03   1.1460441672519199E-03   1.1560170071766367E-03
         3         54   0.0000000000000000E+00   1.6027324765764010E-02   2.9300484125960400E-03   2.6645311753251059E-03
         3         55   8.6829056526042568E-04   2.7257857041793270E-02   9.2105772883202350E-03   3.6143989294473403E-03
         3         56   0.0000000000000000E+00   1.0656812148319379E-02   1.3252022333906919E-03   1.5154858621649657E-03
         3         57   0.0000000000000000E+00   5.6158716411644849E-03   1.2055903756786565E-03   9.9671903078900857E-04
         3         58   0.0000000000000000E+00   1.6445308686253255E-04   5.6122411664554224E-06   1.7592225888855866E-05
         3         59   0.0000000000000000E+00   2.5246617900300671E-03   1.4274934136994746E-04   2.7288235780266901E-04
         3         60   0.0000000000000000E+00   8.0331243376869591E-04   2.3853956118834313E-05   7.8991514209960178E-05
         3         61   2.5674897329075721E-05   1.8275386998788891E-03   4.2022742683569365E-04   2.1805839380951482E-04
         3         62   3.6579364090863527E-05   4.6180340101806428E-03   1.1519646597356042E-03   5.5681197512788127E-04
         3         63   0.0000000000000000E+00   1.0343550614648505E-04   7.9579919459457527E-06   1.3361006729448836E-05
         3         64   0.0000000000000000E+00   6.5238755779035485E-04   6.0080255818265206E-05   7.9628617738176290E-05
         3         65   5.2153316815464081E-06   2.6268518905072039E-03   7.7013194111278673E-04   3.9251892086719425E-04
         3         66   0.0000000000000000E+00   1.6031628579823797E-04   9.4974385627142061E-06   1.7505600151714420E-05
         3         67   0.0000000000000000E+00   5.6431146745957751E-04   8.3172739094718840E-05   1.0617400014074952E-04
         3         68   0.0000000000000000E+00   2.7180197880949234E-06   5.2915265241577214E-08   2.1525718591200341E-07
         3         69   0.0000000000000000E+00   2.9209084487661331E-05   5.5182556510666341E-07   1.5821633201463635E-06
         3         70   0.0000000000000000E+00   1.2470994626803707E-04   2.5646145644362485E-06   9.7474643696813746E-06
         3         71   5.9115537312041007E-03   5.2385295249364063E-02   2.1527787588368007E-02   5.9616434979093682E-03
         3         72   1.9603256055927106E-02   1.3888184924981548E-01   6.7211662895203000E-02   1.5736948988979729E-02
         3         73   0.0000000000000000E+00   4.0071202494026499E-03   6.1520590598854489E-04   5.6978082624764646E-04
         3         74   0.0000000000000000E+00   8.9219448413436972E-03   1.6710353987268855E-03   1.4390652134388543E-03
         3         75   2.5401934006968776E-04   9.1261596638217979E-03   3.2685021725089073E-03   1.2329174525428520E-03
         3         76   0.0000000000000000E+00   6.2030013758486479E-03   8.2722474636103124E-04   8.7696003394761390E-04
         3         77   0.0000000000000000E+00   1.7041757890072418E-03   4.2651485079345697E-04   3.0335125945226126E-04