begin
lattice        23.470398        0.000000        0.000000
lattice         0.000000       23.470398        0.000000
lattice         0.000000        0.000000       23.470398
atom     21.443754    -5.715504    17.832912  Na       0.000000     0.000000     0.000512    -0.006680    -0.000809
atom     62.300594   -11.607106     7.223927  Na       0.000000     0.000000    -0.002434    -0.002198     0.000594
atom     11.298969    19.821856   -19.858044  Na       0.000000     0.000000     0.001496     0.002651    -0.002266
atom     26.001717     7.826415   -35.552868  Na       0.000000     0.000000     0.013918    -0.002383    -0.003655
atom    -13.918304    59.527370    13.020065  Na       0.000000     0.000000     0.004379     0.000296    -0.006103
atom     37.651985    22.344929   -10.828836  Na       0.000000     0.000000    -0.011606     0.003065    -0.001694
atom     14.770229    -2.844241    42.948494  Na       0.000000     0.000000     0.004286    -0.003781     0.008711
atom      0.011654    11.025783    75.737251  Na       0.000000     0.000000    -0.003183    -0.004792    -0.003112
atom    -10.528386    33.499325    58.449158  O        0.000000     0.000000    -0.012457    -0.017504    -0.045461
atom    -11.013488    31.823931    57.738297  H        0.000000     0.000000     0.005486     0.016768     0.009381
atom    -10.263770    33.145885    60.146305  H        0.000000     0.000000     0.011808    -0.002211     0.035455
atom    -37.085476   -96.748001    11.322869  O        0.000000     0.000000    -0.035778    -0.015483    -0.004392
atom    -38.519279   -98.001244    11.531200  H        0.000000     0.000000     0.036648     0.021157    -0.004265
atom    -37.406540   -95.959068     9.673627  H        0.000000     0.000000    -0.000817    -0.003031     0.008660
atom     50.283806    11.837742    37.773495  O        0.000000     0.000000    -0.034846    -0.024185     0.027387
atom     48.678177    11.369340    38.730686  H        0.000000     0.000000     0.035489     0.016880    -0.024621
atom     51.606087    10.902510    38.661591  H        0.000000     0.000000     0.001119     0.009824    -0.000852
atom     40.088322    -4.369456    -8.939883  O        0.000000     0.000000     0.002589     0.005755     0.013129
atom     39.287525    -5.978433    -9.076733  H        0.000000     0.000000    -0.011361    -0.015915     0.005968
atom     40.884441    -4.183659   -10.517193  H        0.000000     0.000000     0.015027     0.001385    -0.020075
atom      4.531462    12.337228    22.429165  O        0.000000     0.000000    -0.030184    -0.007876    -0.004883
atom      6.100479    12.924007    22.921160  H        0.000000     0.000000     0.040223     0.013913     0.008573
atom      3.303217    13.259134    23.463537  H        0.000000     0.000000    -0.000261     0.000883    -0.007229
atom      8.028779   -16.754091     6.163797  O        0.000000     0.000000     0.046989    -0.027386    -0.028449
atom      9.181440   -17.597464     7.425851  H        0.000000     0.000000    -0.021967     0.017390    -0.020554
atom      8.831143   -17.148407     4.414762  H        0.000000     0.000000    -0.019474     0.012291     0.043370
atom     36.154434   -45.971413     0.770302  O        0.000000     0.000000    -0.013981     0.007735    -0.008580
atom     37.792061   -45.344944     1.146154  H        0.000000     0.000000     0.010174    -0.001200     0.002946
atom     35.239464   -44.469082     0.188745  H        0.000000     0.000000     0.008893    -0.009617     0.003969
atom    -54.015194   -41.365726    44.881161  O        0.000000     0.000000    -0.030452     0.009657     0.002636
atom    -55.568424   -40.979237    45.866962  H        0.000000     0.000000     0.020709    -0.004553    -0.012551
atom    -54.535336   -41.167816    43.121029  H        0.000000     0.000000     0.008465    -0.000138     0.008867
atom     38.512718   -62.816856   -18.493385  O        0.000000     0.000000     0.002583    -0.043270     0.007255
atom     37.134747   -63.653408   -19.417299  H        0.000000     0.000000     0.007510     0.019179     0.001148
atom     39.187237   -64.315849   -17.596493  H        0.000000     0.000000    -0.006556     0.020955    -0.003984
atom      3.032756    30.712957    30.425957  O        0.000000     0.000000    -0.027321    -0.018242    -0.007171
atom      4.786316    30.658403    29.873711  H        0.000000     0.000000    -0.000033    -0.010782     0.008827
atom      2.278041    28.994087    30.077900  H        0.000000     0.000000     0.022540     0.026496     0.002948
atom    -44.559227   -14.697706     1.615363  O        0.000000     0.000000     0.025409     0.001474     0.002768
atom    -43.664673   -15.882244     2.686757  H        0.000000     0.000000    -0.010682     0.002453    -0.005801
atom    -43.191208   -13.702313     0.768366  H        0.000000     0.000000    -0.019869    -0.009636     0.002046
atom     -2.953851    50.041866    -0.199757  O        0.000000     0.000000    -0.032374    -0.000999     0.003890
atom     -3.975078    49.015842     0.984433  H        0.000000     0.000000     0.021004     0.007118    -0.008303
atom     -4.333490    51.049789    -0.979699  H        0.000000     0.000000     0.012797    -0.004552     0.002593
atom     37.284267    24.073931    40.439911  O        0.000000     0.000000     0.047698     0.029096     0.003296
atom     35.689434    24.669703    39.921288  H        0.000000     0.000000    -0.034138     0.000482    -0.005121
atom     38.307579    25.644436    40.433502  H        0.000000     0.000000    -0.009387    -0.019530     0.000512
atom    -17.243708    43.453552    -2.861312  O        0.000000     0.000000    -0.027363     0.004656     0.007255
atom    -19.108549    42.942894    -2.880243  H        0.000000     0.000000     0.037738     0.020492     0.010023
atom    -16.961611    44.757629    -1.527339  H        0.000000     0.000000    -0.005490    -0.023890    -0.017274
atom     43.424034    22.334099    -4.154458  O        0.000000     0.000000     0.018356     0.033968     0.002093
atom     44.099464    22.791199    -5.778753  H        0.000000     0.000000    -0.004549    -0.009593    -0.009392
atom     44.058529    23.862768    -3.261917  H        0.000000     0.000000    -0.014780    -0.022534     0.007161
atom    -34.176453   -31.877684    56.444771  O        0.000000     0.000000     0.023060     0.021491    -0.003879
atom    -35.756432   -31.669794    55.616295  H        0.000000     0.000000    -0.011159     0.000287    -0.009274
atom    -33.370655   -30.232756    56.071312  H        0.000000     0.000000    -0.008600    -0.014779     0.006980
atom    -93.649368   -55.926842     0.420929  O        0.000000     0.000000    -0.056764    -0.037541    -0.006974
atom    -94.515785   -57.198132    -0.826020  H        0.000000     0.000000     0.025842     0.037477     0.038008
atom    -94.908745   -55.858452     1.918853  H        0.000000     0.000000     0.029532     0.003211    -0.026810
atom      3.010844     0.052790    15.998064  O        0.000000     0.000000    -0.005543    -0.007604     0.020887
atom      2.268120     1.181646    17.265522  H        0.000000     0.000000     0.004779    -0.000949    -0.016234
atom      3.353718    -1.483241    16.952709  H        0.000000     0.000000     0.003048     0.008219    -0.010956
atom     32.290768     0.406224     7.364465  O        0.000000     0.000000     0.002001     0.009026    -0.002169
atom     33.241817     1.734336     8.216216  H        0.000000     0.000000    -0.003151    -0.006089    -0.002959
atom     30.652161     1.134596     6.985750  H        0.000000     0.000000     0.003311    -0.004675     0.003228
atom      8.884193    86.985062    52.508568  O        0.000000     0.000000    -0.031822    -0.020424     0.030855
atom      7.469114    86.568726    53.745392  H        0.000000     0.000000     0.024187     0.018443    -0.029532
atom      9.002486    85.372948    51.654701  H        0.000000     0.000000     0.008347     0.000995    -0.002300
atom    -49.031467    19.045687    31.309141  O        0.000000     0.000000     0.038850     0.004737     0.035036
atom    -48.164383    19.542555    32.928646  H        0.000000     0.000000    -0.011226    -0.012475    -0.036070
atom    -50.695347    19.564529    31.647444  H        0.000000     0.000000    -0.033545     0.008939    -0.002193
atom    -61.308060    24.875019   -55.691250  O        0.000000     0.000000     0.005038     0.007493    -0.008168
atom    -60.641369    26.106161   -56.886242  H        0.000000     0.000000     0.001558     0.001682    -0.001180
atom    -61.545891    23.441437   -56.816723  H        0.000000     0.000000    -0.001867    -0.005941     0.006946
atom     53.880318   -30.967480   -34.790424  O        0.000000     0.000000    -0.026576     0.018091     0.013909
atom     53.408237   -30.372065   -33.084476  H        0.000000     0.000000     0.001061    -0.005652    -0.022373
atom     52.264301   -31.015247   -35.751865  H        0.000000     0.000000     0.020689    -0.004330     0.009185
atom     42.233368   -21.791801    52.141926  O        0.000000     0.000000     0.022168     0.024450     0.002294
atom     44.046902   -21.809517    52.596508  H        0.000000     0.000000    -0.027744    -0.012998    -0.008766
atom     41.374481   -23.370289    52.380558  H        0.000000     0.000000     0.007330    -0.009212     0.005076
atom     17.117323    -2.628690   -22.441399  O        0.000000     0.000000     0.022695    -0.006456    -0.005391
atom     17.195135    -4.359184   -21.740477  H        0.000000     0.000000    -0.006260     0.016077    -0.007105
atom     18.843231    -2.325449   -23.045849  H        0.000000     0.000000    -0.017003    -0.001496     0.008300
atom     -2.971832    30.902018   -20.037437  O        0.000000     0.000000     0.027146    -0.015466    -0.014154
atom     -4.716338    30.791847   -19.656212  H        0.000000     0.000000    -0.015282    -0.001938     0.000118
atom     -2.506318    29.327120   -20.952837  H        0.000000     0.000000    -0.010227     0.021460     0.012851
atom     -2.618320    14.590275     4.814352  O        0.000000     0.000000    -0.030857     0.039658    -0.002864
atom     -4.285486    15.266712     4.176889  H        0.000000     0.000000     0.013126    -0.026240    -0.003679
atom     -2.300148    16.091324     5.866909  H        0.000000     0.000000     0.018736    -0.011374     0.002677
atom     -0.572882    61.373795   -34.870987  O        0.000000     0.000000     0.021993    -0.047974    -0.012993
atom      0.570879    61.465427   -36.330097  H        0.000000     0.000000    -0.005427     0.007415     0.008401
atom     -1.399185    62.881451   -34.687798  H        0.000000     0.000000    -0.018726     0.047172    -0.000545
atom     49.741871    -6.323492    16.229996  O        0.000000     0.000000     0.015002    -0.029463     0.010230
atom     50.439976    -6.802595    17.921909  H        0.000000     0.000000    -0.014631     0.003122    -0.038008
atom     49.747002    -7.897514    15.161667  H        0.000000     0.000000    -0.002237     0.019700     0.024831
atom     54.122478   -12.380075   -14.469786  O        0.000000     0.000000     0.008236    -0.021430    -0.042837
atom     54.623325   -13.414515   -16.003336  H        0.000000     0.000000     0.001437     0.011364     0.039572
atom     52.897659   -11.319317   -15.315195  H        0.000000     0.000000    -0.007012     0.009677     0.011790
atom    -22.341837    74.954605   -28.872366  O        0.000000     0.000000    -0.028120     0.021267     0.014170
atom    -23.106716    75.189835   -27.183249  H        0.000000     0.000000     0.012245    -0.001976    -0.020960
atom    -23.350248    76.136642   -29.953716  H        0.000000     0.000000     0.014603    -0.018950     0.010591
atom      6.220399    29.231447    62.594437  O        0.000000     0.000000     0.013668    -0.032765     0.009871
atom      7.214544    27.620228    62.603565  H        0.000000     0.000000    -0.008446     0.020496    -0.010945
atom      4.967197    28.713432    63.792068  H        0.000000     0.000000    -0.015196     0.005964     0.004428
atom     27.413683     3.090658   -12.491190  O        0.000000     0.000000    -0.018750    -0.038184    -0.008995
atom     26.724020     1.859464   -13.799689  H        0.000000     0.000000     0.016960     0.030607     0.023409
atom     27.492258     2.095238   -10.930494  H        0.000000     0.000000     0.000977     0.010133    -0.011853
atom     24.580317    42.432434    44.552631  O        0.000000     0.000000    -0.002164     0.008968     0.003739
atom     24.692850    41.238258    45.910553  H        0.000000     0.000000    -0.001423    -0.019954     0.001480
atom     23.843433    43.815975    45.524067  H        0.000000     0.000000     0.000290     0.006412    -0.003176
atom     16.879576    -6.858097    66.798653  O        0.000000     0.000000    -0.018261    -0.035995     0.001549
atom     16.198557    -7.357231    68.491394  H        0.000000     0.000000     0.016095     0.006687    -0.021820
atom     16.267616    -8.282024    65.615898  H        0.000000     0.000000     0.009174     0.033887     0.023957
atom     31.370962    22.703831    25.178827  O        0.000000     0.000000    -0.006610     0.020281     0.005438
atom     29.754431    23.086636    25.945868  H        0.000000     0.000000     0.000164    -0.006024     0.002900
atom     32.285416    24.269674    25.527180  H        0.000000     0.000000    -0.002653    -0.016257    -0.005296
atom     42.687210    95.425980    11.754353  O        0.000000     0.000000     0.029026     0.022566     0.026649
atom     44.000156    96.744621    11.987689  H        0.000000     0.000000    -0.019839    -0.011929     0.005114
atom     42.618061    95.384644     9.984990  H        0.000000     0.000000    -0.011414    -0.006867    -0.031230
atom    -30.664598    29.264118    39.316689  O        0.000000     0.000000    -0.038474     0.001594    -0.000885
atom    -31.779613    29.638067    37.903156  H        0.000000     0.000000    -0.002752    -0.004476     0.011458
atom    -29.164074    29.042744    38.419079  H        0.000000     0.000000     0.037081    -0.002225    -0.008194
atom     58.069439    -3.725157    -6.491855  O        0.000000     0.000000     0.001963     0.000689    -0.004661
atom     56.811142    -3.507347    -5.226761  H        0.000000     0.000000    -0.011796     0.004594     0.005016
atom     58.351795    -5.505033    -6.523362  H        0.000000     0.000000     0.003253    -0.012820    -0.003752
atom     68.492599    36.303951   -29.504999  O        0.000000     0.000000     0.006093    -0.096745    -0.003516
atom     67.907761    35.143581   -30.998224  H        0.000000     0.000000     0.015513     0.040629     0.041797
atom     69.030739    34.798264   -28.238836  H        0.000000     0.000000    -0.022360     0.056366    -0.035181
atom    -35.628212    58.684677    50.836597  O        0.000000     0.000000     0.000394    -0.012535    -0.054399
atom    -36.229336    57.280293    49.683781  H        0.000000     0.000000     0.007767     0.018590     0.031317
atom    -34.563519    59.554474    49.542320  H        0.000000     0.000000    -0.011071    -0.002777     0.026263
atom     22.774332    22.093700   -45.578880  O        0.000000     0.000000     0.022869     0.013570     0.014995
atom     23.062403    21.248177   -43.989574  H        0.000000     0.000000    -0.007366    -0.010289    -0.001113
atom     23.899012    23.535675   -45.160309  H        0.000000     0.000000    -0.015589    -0.007740    -0.012040
atom     92.553589   -49.394005    13.674148  O        0.000000     0.000000     0.007118    -0.004522    -0.003026
atom     91.498253   -47.982182    13.225434  H        0.000000     0.000000    -0.008682     0.003175    -0.006243
atom     94.237953   -48.703926    13.477915  H        0.000000     0.000000    -0.001874    -0.004234     0.009775
atom    -62.474663    10.253332    -6.980306  O        0.000000     0.000000    -0.011752    -0.035236    -0.027114
atom    -62.865818     8.421153    -6.643888  H        0.000000     0.000000     0.005600     0.021498    -0.011799
atom    -62.322643    11.060497    -5.439095  H        0.000000     0.000000     0.008976     0.017880     0.039307
atom     34.159180    17.501186    -1.164680  O        0.000000     0.000000    -0.004581    -0.029307    -0.010845
atom     34.801529    15.718758    -1.127872  H        0.000000     0.000000    -0.015197     0.030291     0.000292
atom     32.568558    17.416290    -2.151401  H        0.000000     0.000000     0.019839     0.004736     0.019719
atom     45.422955     9.387321    21.708664  O        0.000000     0.000000    -0.003815     0.001702     0.004633
atom     43.771484     9.283602    22.470337  H        0.000000     0.000000     0.001193    -0.001745    -0.004062
atom     46.545639     8.829348    23.058578  H        0.000000     0.000000     0.003874     0.001590    -0.004538
atom     11.023183    59.246555    -2.218769  O        0.000000     0.000000     0.018460    -0.008626    -0.001156
atom     11.389716    57.559551    -1.554979  H        0.000000     0.000000    -0.004644     0.010670    -0.004850
atom     12.473350    59.659931    -3.320824  H        0.000000     0.000000    -0.018183    -0.007170     0.001777
atom     43.294403    11.015498     8.976404  O        0.000000     0.000000     0.008840    -0.011153     0.062286
atom     43.866764    12.606309     9.848032  H        0.000000     0.000000    -0.006541    -0.028417    -0.014037
atom     43.399643     9.744394    10.523685  H        0.000000     0.000000    -0.001183     0.037215    -0.048001
atom     13.637661    37.296783    16.106621  Cl       0.000000     0.000000     0.001126     0.003083     0.001067
atom     50.161297    38.558224    30.781878  Cl       0.000000     0.000000    -0.002868    -0.001840     0.003592
atom    -20.836489     1.371448    52.342514  Cl       0.000000     0.000000    -0.001670     0.001678    -0.001405
atom     -1.736544     7.615132    13.613677  Cl       0.000000     0.000000    -0.007339    -0.004263     0.003875
atom     39.177013    15.522790     2.342548  Cl       0.000000     0.000000    -0.002075    -0.005296     0.001507
atom     15.321026    20.813501    31.437391  Cl       0.000000     0.000000     0.005878    -0.004963     0.000783
atom    -11.205955   -19.073809    10.655385  Cl       0.000000     0.000000    -0.001569    -0.004012    -0.002886
atom     34.057747    30.123312     0.543046  Cl       0.000000     0.000000     0.000474    -0.000321     0.001756
energy  -1326.486777
charge      0.000000
end
begin
lattice        23.470398        0.000000        0.000000
lattice         0.000000       23.470398        0.000000
lattice         0.000000        0.000000       23.470398
atom     28.396879    -8.586576    39.219051  Na       0.000000     0.000000     0.009713    -0.005213     0.000697
atom     46.155533   -10.382051    10.699502  Na       0.000000     0.000000    -0.005104    -0.000412    -0.004591
atom      2.045932    20.235981   -11.620076  Na       0.000000     0.000000    -0.006459     0.003810    -0.002676
atom     36.291698     6.923471   -27.421814  Na       0.000000     0.000000     0.000650     0.005894     0.000395
atom     -4.388689    62.244526    -1.588285  Na       0.000000     0.000000    -0.003411    -0.000155     0.010360
atom     34.434906    12.862037    -0.217125  Na       0.000000     0.000000     0.002268    -0.003222    -0.002139
atom     10.639203     1.543442    35.994007  Na       0.000000     0.000000     0.000090     0.001984    -0.001757
atom     20.437298     5.300308    56.936394  Na       0.000000     0.000000    -0.003248     0.000516     0.002175
atom     -2.123057    32.511879    88.528969  O        0.000000     0.000000     0.027450    -0.016542     0.001227
atom     -0.569870    32.703732    89.582512  H        0.000000     0.000000    -0.024071    -0.011388    -0.018593
atom     -2.011771    30.849670    87.609634  H        0.000000     0.000000    -0.003693     0.028478     0.020808
atom     30.849016   -44.330654     7.349374  O        0.000000     0.000000    -0.009320     0.009607     0.011835
atom     30.256912   -42.670021     7.867367  H        0.000000     0.000000     0.000890    -0.014434    -0.000724
atom     32.312584   -43.947895     6.390088  H        0.000000     0.000000     0.011060     0.003095    -0.009883
atom     68.190514    -2.653111     2.300449  O        0.000000     0.000000     0.014616    -0.016899     0.013788
atom     69.142448    -2.674432     0.743649  H        0.000000     0.000000    -0.009654     0.012273     0.004824
atom     66.815735    -1.493549     2.330864  H        0.000000     0.000000    -0.003697     0.005034    -0.020828
atom    -13.621953    -5.486417    10.295159  O        0.000000     0.000000     0.040166     0.020455    -0.005783
atom    -12.444714    -6.905285     9.969936  H        0.000000     0.000000    -0.012481     0.006052    -0.003784
atom    -12.524021    -3.946496    10.045841  H        0.000000     0.000000    -0.023030    -0.025036    -0.000683
atom      0.771097     2.272189    12.015804  O        0.000000     0.000000     0.000650     0.002009     0.012756
atom      0.294216     2.308361    13.777625  H        0.000000     0.000000    -0.013760    -0.006664    -0.002010
atom      2.075096     3.545156    12.101900  H        0.000000     0.000000     0.007403    -0.000924    -0.010502
atom     33.579197     2.091993     0.513127  O        0.000000     0.000000    -0.003614     0.005903    -0.025532
atom     33.046711     3.832969     0.369298  H        0.000000     0.000000    -0.000451    -0.000952     0.001800
atom     34.066883     1.665352    -1.243203  H        0.000000     0.000000    -0.002862    -0.004934     0.020004
atom     45.679115   -50.956505    14.843092  O        0.000000     0.000000    -0.003606     0.021627     0.029641
atom     45.458157   -49.823910    16.346394  H        0.000000     0.000000     0.015145    -0.014185    -0.019336
atom     43.954479   -51.399643    14.610266  H        0.000000     0.000000    -0.012386    -0.009020    -0.010819
atom    -32.818958   -27.504366     2.903924  O        0.000000     0.000000    -0.007870     0.017263    -0.017976
atom    -32.892578   -26.949018     1.111244  H        0.000000     0.000000     0.005971    -0.010441     0.029027
atom    -33.280678   -25.963726     3.833730  H        0.000000     0.000000     0.008899    -0.012695    -0.011527
atom     42.829571   -67.529388   -22.033541  O        0.000000     0.000000     0.010748     0.037530     0.034306
atom     44.487392   -66.783897   -22.390335  H        0.000000     0.000000     0.000885    -0.014293    -0.005617
atom     42.457325   -66.302940   -20.603889  H        0.000000     0.000000    -0.009532    -0.025872    -0.019017
atom      4.122919    19.574766    40.231953  O        0.000000     0.000000     0.000455    -0.011392    -0.007197
atom      3.320052    20.556643    41.495110  H        0.000000     0.000000    -0.008353     0.007251     0.008693
atom      5.561250    20.538868    39.716763  H        0.000000     0.000000     0.008999     0.003595    -0.000020
atom    -35.894077    11.806453    -5.041420  O        0.000000     0.000000     0.011389    -0.002743    -0.004865
atom    -35.186089    13.204176    -6.004910  H        0.000000     0.000000    -0.007360    -0.005089     0.006510
atom    -37.682388    11.982849    -5.172398  H        0.000000     0.000000    -0.004628     0.004132    -0.003628
atom      7.709356    57.465527     7.580703  O        0.000000     0.000000     0.003293     0.016827     0.041223
atom      8.966713    58.926723     7.560914  H        0.000000     0.000000    -0.017299    -0.033320     0.004800
atom      7.347726    57.116676     9.453393  H        0.000000     0.000000     0.018915     0.012266    -0.045034
atom     33.597805     6.664412    28.190754  O        0.000000     0.000000    -0.009410     0.008039     0.015015
atom     32.505661     7.867429    29.133451  H        0.000000     0.000000     0.014338    -0.008954    -0.008857
atom     35.287899     6.985327    28.842218  H        0.000000     0.000000    -0.004257    -0.000848    -0.009520
atom    -33.390263     1.077628     3.993064  O        0.000000     0.000000    -0.001986     0.043592    -0.018184
atom    -34.846130     1.722795     2.880390  H        0.000000     0.000000     0.029248    -0.016705     0.015728
atom    -32.125854     2.507259     3.934672  H        0.000000     0.000000    -0.023759    -0.026026     0.006639
atom     31.548983    36.746593     3.063548  O        0.000000     0.000000     0.022114     0.041543     0.006246
atom     30.501518    38.206463     2.688485  H        0.000000     0.000000    -0.002931    -0.005165     0.004506
atom     30.572979    35.357174     2.683380  H        0.000000     0.000000    -0.029005    -0.034160    -0.008059
atom    -17.146261   -56.099995    44.292728  O        0.000000     0.000000    -0.028263    -0.020112     0.005219
atom    -18.361988   -57.447117    44.855293  H        0.000000     0.000000     0.020495     0.015933    -0.007173
atom    -17.909840   -54.629822    45.038933  H        0.000000     0.000000     0.005507     0.003298     0.004809
atom    -50.096653   -35.516785     6.374437  O        0.000000     0.000000    -0.002907    -0.058748     0.032803
atom    -50.816193   -37.281551     6.085858  H        0.000000     0.000000     0.012353     0.046452     0.000946
atom    -50.384552   -34.540901     4.941753  H        0.000000     0.000000    -0.010726     0.015751    -0.031022
atom     12.796419    23.180082    32.360046  O        0.000000     0.000000     0.008249     0.008676    -0.031978
atom     13.105170    23.766527    30.549677  H        0.000000     0.000000    -0.019882    -0.007720     0.024740
atom     14.565707    23.203976    32.860291  H        0.000000     0.000000     0.002945    -0.001869     0.014308
atom     16.554010    34.254017    -2.643882  O        0.000000     0.000000     0.015501     0.026114    -0.027742
atom     18.065933    33.370251    -3.251904  H        0.000000     0.000000    -0.010596     0.000817     0.003419
atom     16.462524    35.666412    -3.931797  H        0.000000     0.000000    -0.006611    -0.028155     0.019838
atom     -7.486625    73.789612    21.138517  O        0.000000     0.000000     0.013851    -0.004408     0.023027
atom     -6.450328    73.646660    22.749020  H        0.000000     0.000000    -0.013769     0.007799    -0.026001
atom     -6.199980    73.878593    19.839502  H        0.000000     0.000000    -0.002807    -0.000524    -0.003834
atom    -37.086559     4.187695    17.022728  O        0.000000     0.000000    -0.030054     0.043814    -0.032224
atom    -38.758987     4.604324    16.141396  H        0.000000     0.000000     0.039248    -0.013998     0.024435
atom    -37.102768     2.539631    17.730856  H        0.000000     0.000000    -0.008647    -0.023861     0.005438
atom    -18.752865    16.501614   -35.640827  O        0.000000     0.000000     0.003765    -0.029670    -0.006881
atom    -17.119787    17.279173   -35.867844  H        0.000000     0.000000     0.007091    -0.000289    -0.002934
atom    -18.510008    14.773053   -36.351929  H        0.000000     0.000000    -0.007423     0.031706     0.007138
atom     29.675920    -0.558856   -34.369484  O        0.000000     0.000000    -0.011230     0.025076     0.011167
atom     28.849503     1.141181   -34.144764  H        0.000000     0.000000     0.016073    -0.028315    -0.006721
atom     29.546129    -0.877827   -36.151768  H        0.000000     0.000000    -0.000930     0.002623    -0.009173
atom     32.918377   -15.538114    46.587780  O        0.000000     0.000000    -0.020609    -0.006706     0.018008
atom     31.056093   -15.241085    46.425911  H        0.000000     0.000000     0.028556    -0.008575     0.004840
atom     33.282600   -16.047739    48.399815  H        0.000000     0.000000    -0.007485     0.016186    -0.021069
atom     12.105086   -30.470592    -2.157045  O        0.000000     0.000000    -0.017249     0.040206     0.004359
atom     13.581396   -30.186176    -3.265040  H        0.000000     0.000000    -0.020207     0.005840     0.005459
atom     10.982588   -28.905931    -1.984147  H        0.000000     0.000000     0.040231    -0.037384    -0.014934
atom      0.091202    39.105751    -3.642896  O        0.000000     0.000000    -0.008410    -0.008962     0.020605
atom     -0.141175    38.139915    -2.065004  H        0.000000     0.000000     0.013870     0.005737    -0.010833
atom      1.673313    39.949181    -3.413208  H        0.000000     0.000000    -0.002219     0.003154     0.002782
atom     13.287422    10.768186     2.957106  O        0.000000     0.000000     0.012470     0.010289     0.014215
atom     15.047267    10.672451     2.458307  H        0.000000     0.000000    -0.009034    -0.002120     0.006894
atom     13.295129    11.295343     4.757796  H        0.000000     0.000000     0.002264    -0.003509    -0.021543
atom     18.613672    33.166801   -35.216663  O        0.000000     0.000000    -0.051879     0.016061    -0.004536
atom     17.256863    33.620815   -36.485889  H        0.000000     0.000000     0.030824    -0.007454     0.019258
atom     17.554064    33.249283   -33.655865  H        0.000000     0.000000     0.024523    -0.006841    -0.017035
atom     42.012032    -7.248522    26.438980  O        0.000000     0.000000     0.009059     0.035310     0.001256
atom     40.517380    -6.125100    26.807306  H        0.000000     0.000000     0.022596    -0.016056    -0.008186
atom     43.495644    -6.038341    26.365271  H        0.000000     0.000000    -0.033789    -0.017211     0.003995