begin
lattice        23.470398        0.000000        0.000000
lattice         0.000000       23.470398        0.000000
lattice         0.000000        0.000000       23.470398
atom     51.910065    35.057419    25.259047  Na       0.000000     0.000000    -0.008137     0.003515    -0.005610
atom     50.392735    29.617935    31.271891  Na       0.000000     0.000000     0.004397     0.001953     0.006471
atom     21.199953    48.161278   -48.250515  O        0.000000     0.000000     0.024105    -0.011439    -0.019912
atom     21.289675    49.206535   -49.787991  H        0.000000     0.000000     0.003434    -0.009016     0.006174
atom     19.931269    48.976864   -47.280140  H        0.000000     0.000000    -0.020494     0.005423     0.015098
atom    -57.961811     1.003646   -21.304640  O        0.000000     0.000000    -0.008402     0.015755    -0.015332
atom    -58.451340     2.899963   -21.457939  H        0.000000     0.000000     0.003989    -0.036438     0.012283
atom    -58.912086     0.079836   -19.963587  H        0.000000     0.000000     0.005226     0.021733    -0.003787
atom    -38.192997   -92.084679    39.234058  O        0.000000     0.000000     0.023950     0.049161    -0.024194
atom    -36.398819   -92.110611    38.700375  H        0.000000     0.000000    -0.015227    -0.011283     0.010328
atom    -38.476284   -90.225182    38.799763  H        0.000000     0.000000     0.002661    -0.029860     0.009662
atom     28.678293   -31.392056    -5.247776  O        0.000000     0.000000     0.011243    -0.023225    -0.018475
atom     28.733395   -30.250973    -3.862721  H        0.000000     0.000000    -0.010216     0.014864    -0.002101
atom     27.562454   -30.967751    -6.627517  H        0.000000     0.000000    -0.000083     0.005884     0.016613
atom     23.978529    65.337372   -26.047705  O        0.000000     0.000000    -0.026581     0.005791    -0.010214
atom     22.464403    65.886909   -27.072088  H        0.000000     0.000000     0.028130    -0.006444     0.017245
atom     25.244522    66.627754   -26.217188  H        0.000000     0.000000     0.000295     0.005720    -0.004371
atom    -51.878475    53.730087    83.532921  O        0.000000     0.000000     0.019085    -0.000042    -0.021948
atom    -53.036911    54.926308    82.731071  H        0.000000     0.000000     0.004567    -0.002595     0.009124
atom    -50.337677    53.804005    82.451210  H        0.000000     0.000000    -0.019887     0.006702     0.015615
atom    -29.458269     1.937634    33.711750  O        0.000000     0.000000     0.031007    -0.008405    -0.014332
atom    -28.451006     3.438425    33.776348  H        0.000000     0.000000    -0.011664     0.016326     0.012696
atom    -28.165583     1.008700    32.768612  H        0.000000     0.000000    -0.022808    -0.009226     0.000527
atom     95.038757   -39.882252     3.696453  O        0.000000     0.000000    -0.006256    -0.010176     0.009857
atom     93.344040   -39.183666     3.565259  H        0.000000     0.000000     0.004423    -0.001442    -0.006962
atom     94.797424   -41.704159     3.520556  H        0.000000     0.000000    -0.000671     0.005894    -0.007080
atom     37.365952    60.762314    17.030439  O        0.000000     0.000000     0.003474     0.020917     0.038685
atom     35.880764    61.079578    15.989545  H        0.000000     0.000000    -0.005496     0.000711     0.011684
atom     37.159679    61.647678    18.726269  H        0.000000     0.000000     0.000868    -0.020943    -0.043390
atom    -11.271415   -18.305090   -37.446167  O        0.000000     0.000000    -0.026385     0.023946     0.025335
atom    -10.294294   -19.695211   -36.936646  H        0.000000     0.000000     0.020123    -0.023351    -0.000203
atom    -11.892890   -17.644791   -35.820950  H        0.000000     0.000000     0.006523    -0.002157    -0.012290
atom    -39.207176    34.090992    19.345123  O        0.000000     0.000000    -0.031605     0.025056    -0.022364
atom    -40.417568    32.733246    19.092632  H        0.000000     0.000000     0.003496    -0.005835     0.006319
atom    -40.212280    35.561577    18.666584  H        0.000000     0.000000     0.025158    -0.018250     0.015121
atom    -10.984160    32.566917    -2.635228  O        0.000000     0.000000     0.057930     0.028191     0.009116
atom    -12.499685    33.365757    -3.115444  H        0.000000     0.000000    -0.032124     0.006666    -0.007313
atom     -9.811859    34.086609    -2.589077  H        0.000000     0.000000    -0.021792    -0.041510    -0.001299
atom     32.950066    -8.752831   -32.455070  O        0.000000     0.000000    -0.027708     0.022310     0.015745
atom     32.335831    -9.916001   -33.720348  H        0.000000     0.000000     0.006788     0.001244    -0.006345
atom     31.449284    -8.040173   -31.577642  H        0.000000     0.000000     0.023425    -0.013007    -0.007221
atom     79.972816   -16.700817    37.944561  O        0.000000     0.000000    -0.023846     0.033702     0.018482
atom     78.367683   -16.293541    37.020248  H        0.000000     0.000000     0.018346     0.003946     0.007597
atom     80.033707   -15.367829    39.337852  H        0.000000     0.000000    -0.000838    -0.031680    -0.031326
atom    -14.637476    14.925949   -68.739578  O        0.000000     0.000000    -0.014782     0.007705     0.021584
atom    -13.031376    15.573413   -69.412415  H        0.000000     0.000000     0.003709    -0.012159     0.006510
atom    -14.637320    15.253758   -66.893631  H        0.000000     0.000000     0.008993    -0.001458    -0.021498
atom     -9.429796    -8.827156     8.826404  O        0.000000     0.000000     0.016904    -0.001147    -0.012176
atom     -8.994625    -9.811148     7.334216  H        0.000000     0.000000     0.003364     0.007126     0.006847
atom     -8.085060    -7.535015     8.894955  H        0.000000     0.000000    -0.011528    -0.009267     0.001943
atom     82.048492    21.022306    -1.970682  O        0.000000     0.000000    -0.020502     0.021217     0.043376
atom     82.496582    22.118298    -0.451071  H        0.000000     0.000000    -0.001179    -0.009304    -0.028980
atom     80.217506    20.716373    -1.628886  H        0.000000     0.000000     0.018205    -0.006009    -0.011755
atom      3.424493   -56.913689    36.449162  O        0.000000     0.000000     0.003657     0.000551    -0.002199
atom      1.659829   -56.462940    36.460236  H        0.000000     0.000000    -0.011991    -0.005185     0.007010
atom      3.925620   -56.307850    34.825958  H        0.000000     0.000000     0.006279     0.004400    -0.006398
atom    -27.625671   102.244415    72.557213  O        0.000000     0.000000    -0.022562    -0.031691     0.012737
atom    -28.418613   100.569313    72.125740  H        0.000000     0.000000     0.011011     0.023077     0.006472
atom    -28.756237   103.040901    73.810852  H        0.000000     0.000000     0.013172    -0.000615    -0.014779
atom    -18.743017    48.542103    10.254764  O        0.000000     0.000000     0.014457    -0.004961    -0.026067
atom    -17.141567    48.536575     9.247370  H        0.000000     0.000000    -0.028467    -0.001484     0.017058
atom    -19.888287    47.434601     9.286798  H        0.000000     0.000000     0.012196     0.004928     0.018410
atom     -6.532257    65.904030     9.578676  O        0.000000     0.000000    -0.035980     0.023109    -0.022700
atom     -6.094151    66.721481     7.942508  H        0.000000     0.000000    -0.005142    -0.007330     0.019924
atom     -8.402390    66.359566     9.720353  H        0.000000     0.000000     0.039869    -0.009695     0.005619
atom      8.751012   -31.302162    54.319382  O        0.000000     0.000000    -0.013225    -0.000107    -0.012822
atom     10.041800   -30.240206    55.071735  H        0.000000     0.000000    -0.003238    -0.000412     0.001279
atom      7.217482   -30.329723    54.111347  H        0.000000     0.000000     0.009033     0.003009     0.006280
atom     74.436363    -1.060591    19.169519  O        0.000000     0.000000     0.005687     0.004548    -0.002644
atom     75.142113    -2.304021    18.052330  H        0.000000     0.000000     0.001370    -0.003440    -0.004553
atom     75.967606    -0.160968    19.781372  H        0.000000     0.000000    -0.022562    -0.003122     0.001212
atom    -42.609489   100.324570    -4.497891  O        0.000000     0.000000     0.009722    -0.056766    -0.023266
atom    -42.647171    98.927956    -5.928660  H        0.000000     0.000000    -0.010023     0.042701     0.039100
atom    -41.908657    99.296631    -3.096703  H        0.000000     0.000000    -0.006041     0.018466    -0.013504
atom     -8.492566    34.308437    12.726062  O        0.000000     0.000000     0.002813     0.011800    -0.003525
atom     -8.267945    34.673145    14.489550  H        0.000000     0.000000     0.000541    -0.002535     0.007253
atom     -8.412264    36.009949    12.002177  H        0.000000     0.000000    -0.002200    -0.014377    -0.005727
atom     -5.513322   -30.912367    24.240658  O        0.000000     0.000000     0.030277     0.027772     0.045968
atom     -4.100673   -30.096724    25.284914  H        0.000000     0.000000    -0.026221    -0.014776    -0.033748
atom     -4.989231   -32.436779    23.391443  H        0.000000     0.000000     0.012513    -0.011334    -0.009057
atom     34.964489   -17.460024     1.848647  O        0.000000     0.000000    -0.011667    -0.014828    -0.002636
atom     35.372459   -16.551447     3.401378  H        0.000000     0.000000     0.005390     0.004544    -0.001314
atom     35.867031   -16.765652     0.432148  H        0.000000     0.000000    -0.001422     0.010721    -0.000130
atom     64.046791     3.533964    23.792259  O        0.000000     0.000000    -0.007661    -0.000818     0.018670
atom     62.763561     2.459909    24.574968  H        0.000000     0.000000     0.009553     0.006309    -0.001580
atom     63.491703     3.823954    22.072720  H        0.000000     0.000000    -0.001943    -0.001118    -0.007241
atom    -41.455780    32.015160    11.400568  O        0.000000     0.000000    -0.020023     0.010449     0.026319
atom    -42.375351    33.412800    12.231682  H        0.000000     0.000000    -0.000527    -0.018529     0.002943
atom    -40.619343    33.043533    10.194228  H        0.000000     0.000000     0.020517     0.001884    -0.018702
atom     66.051964   -35.172749    -1.412452  O        0.000000     0.000000    -0.003536     0.001782     0.012732
atom     66.186928   -36.735828    -0.410581  H        0.000000     0.000000     0.001209     0.008955    -0.003807
atom     66.347076   -35.542542    -3.141668  H        0.000000     0.000000     0.000899    -0.003333    -0.015391
atom     21.478039    26.967194   -29.158634  O        0.000000     0.000000    -0.018901     0.004199    -0.038241
atom     20.074715    27.004730   -30.403845  H        0.000000     0.000000     0.018404     0.003124     0.024147
atom     22.951008    26.641348   -30.230600  H        0.000000     0.000000     0.002285     0.002464     0.007609
atom     29.494638    80.801094     6.634808  O        0.000000     0.000000    -0.007766     0.004803    -0.012235
atom     31.049347    80.240074     5.923126  H        0.000000     0.000000     0.012964    -0.006622     0.001477
atom     29.731604    82.584961     6.836419  H        0.000000     0.000000     0.002323     0.005672     0.006183
atom     76.995049    66.248650   163.207489  O        0.000000     0.000000     0.012990    -0.015338    -0.013513
atom     76.323601    67.345779   164.469559  H        0.000000     0.000000    -0.010073     0.008064     0.010250
atom     77.429962    64.712364   164.095032  H        0.000000     0.000000     0.004145    -0.001542     0.005345
atom    -40.961323   -39.502438     0.926476  O        0.000000     0.000000    -0.008429     0.006657    -0.004116
atom    -42.235657   -40.566456     1.658155  H        0.000000     0.000000     0.005886    -0.000601     0.001379
atom    -39.299213   -40.081520     1.334800  H        0.000000     0.000000     0.007800    -0.009680     0.002307
atom    -26.398397    34.127251    63.529591  O        0.000000     0.000000     0.007326    -0.025545     0.013299
atom    -27.114199    32.611301    62.766811  H        0.000000     0.000000    -0.005152     0.013802    -0.007595
atom    -25.189625    33.238838    64.727608  H        0.000000     0.000000    -0.010434     0.020009    -0.008679
atom    -47.869839    78.364624   -13.980921  O        0.000000     0.000000     0.009603    -0.029727     0.019699
atom    -48.158344    77.236519   -15.342145  H        0.000000     0.000000    -0.006481    -0.006506    -0.011328
atom    -48.096790    80.015709   -14.584744  H        0.000000     0.000000    -0.007108     0.033930    -0.010968
atom     91.861595   -27.138336   -56.999500  O        0.000000     0.000000    -0.002018     0.011634     0.039699
atom     91.225227   -26.464830   -55.354210  H        0.000000     0.000000     0.020745    -0.003713    -0.010536
atom     90.312607   -27.262497   -57.857334  H        0.000000     0.000000    -0.023695    -0.006231    -0.026809
atom    -25.562380    84.923622    60.370720  O        0.000000     0.000000     0.009532     0.033047     0.021848
atom    -25.407848    86.703773    60.984905  H        0.000000     0.000000    -0.003838    -0.023340    -0.017626
atom    -26.002682    83.962929    61.891724  H        0.000000     0.000000     0.001926    -0.010978    -0.012026
atom    -45.790291   -33.368790   -47.178097  O        0.000000     0.000000     0.010403    -0.019014     0.012490
atom    -45.791893   -31.664042   -47.732513  H        0.000000     0.000000    -0.005715     0.015341    -0.009908
atom    -47.426704   -34.059372   -47.539413  H        0.000000     0.000000    -0.002802    -0.000603    -0.003131
atom     31.116493    27.990292   -16.789600  O        0.000000     0.000000     0.023110    -0.023768    -0.015322
atom     31.708174    26.629082   -18.013382  H        0.000000     0.000000    -0.011226     0.030132     0.034238
atom     32.436810    27.972128   -15.451576  H        0.000000     0.000000    -0.009341     0.000544    -0.023945
atom    -24.192722   -38.584446   -50.256157  O        0.000000     0.000000     0.048097    -0.054056    -0.006148
atom    -22.365120   -39.136917   -50.554173  H        0.000000     0.000000    -0.024115     0.023141     0.007784
atom    -24.824764   -40.310474   -50.591461  H        0.000000     0.000000    -0.009716     0.018899     0.002858
atom     13.353395    16.330496    23.227919  O        0.000000     0.000000    -0.041960     0.044208    -0.008856
atom     12.797863    18.186970    23.130209  H        0.000000     0.000000     0.018505    -0.043887    -0.007740
atom     15.096505    16.344421    23.774691  H        0.000000     0.000000     0.008394     0.001667     0.004219
atom     38.250908   -22.415224    38.121033  O        0.000000     0.000000     0.012756     0.005201    -0.009517
atom     38.161816   -24.022120    38.958584  H        0.000000     0.000000     0.001359    -0.007841     0.003104
atom     39.579094   -22.577425    36.811497  H        0.000000     0.000000    -0.017736     0.004784     0.008611
atom     33.548115    35.074554    10.644603  O        0.000000     0.000000     0.017651    -0.040390     0.019480
atom     34.608910    33.939720    11.790381  H        0.000000     0.000000    -0.018503     0.032250    -0.033064
atom     34.667934    35.644875     9.300778  H        0.000000     0.000000    -0.007972     0.000104     0.016637
atom     46.237549   -21.385105    54.254681  O        0.000000     0.000000    -0.002326     0.012273    -0.021115
atom     46.540531   -22.801985    55.298489  H        0.000000     0.000000     0.006901    -0.018347     0.013439
atom     46.497372   -22.052439    52.532787  H        0.000000     0.000000    -0.003658     0.010154     0.011036
atom     17.284935    59.383244   -41.967178  O        0.000000     0.000000     0.009261     0.029091    -0.021079
atom     18.670547    59.732883   -40.752445  H        0.000000     0.000000    -0.009347     0.000111    -0.007962
atom     17.393717    60.763809   -43.342556  H        0.000000     0.000000    -0.003125    -0.033944     0.032035
atom      1.407838   -26.020353   127.074982  O        0.000000     0.000000     0.003120    -0.011695    -0.033244
atom      1.509465   -27.264185   125.594284  H        0.000000     0.000000    -0.007656     0.018615     0.043021
atom      0.276543   -26.553104   128.439865  H        0.000000     0.000000     0.005369    -0.003714    -0.011820
atom    -25.556669   -57.101585     8.254354  O        0.000000     0.000000     0.026642     0.008763    -0.042187
atom    -24.253086   -56.120224     7.129367  H        0.000000     0.000000    -0.029401    -0.022806     0.036740
atom    -25.423985   -56.493099     9.962161  H        0.000000     0.000000    -0.002921     0.004914     0.006770
atom     11.694708    18.668489    11.272144  O        0.000000     0.000000    -0.050727     0.046485     0.018865
atom     10.570481    20.272036    11.329738  H        0.000000     0.000000     0.038337    -0.045983    -0.006259
atom     10.850194    17.629547    12.575499  H        0.000000     0.000000     0.012197     0.000615    -0.012986
atom     49.628914     2.657891    15.692375  O        0.000000     0.000000     0.007588     0.020001    -0.040240
atom     50.283066     2.604450    13.917607  H        0.000000     0.000000    -0.010996    -0.007364     0.028067
atom     49.824078     1.035497    16.464790  H        0.000000     0.000000     0.009602    -0.014416     0.007483
atom     61.696793   -50.898823    40.879612  O        0.000000     0.000000     0.019896     0.015428    -0.008154
atom     60.376308   -50.679249    42.089695  H        0.000000     0.000000    -0.009954    -0.004199     0.005139
atom     61.371571   -52.214745    39.688072  H        0.000000     0.000000    -0.006280    -0.005120     0.003988
atom    -54.671513     4.375972   -51.348499  O        0.000000     0.000000     0.021249    -0.018130    -0.015623
atom    -56.099716     5.417284   -51.349201  H        0.000000     0.000000    -0.021750     0.021209    -0.001563
atom    -54.561974     3.622987   -53.035751  H        0.000000     0.000000    -0.006837     0.000466     0.012557
atom    -42.002365    21.554371   -20.200617  O        0.000000     0.000000     0.012229    -0.016019     0.004209
atom    -40.333939    21.789255   -19.431314  H        0.000000     0.000000    -0.000158     0.009455     0.004885
atom    -42.337513    19.830097   -19.666019  H        0.000000     0.000000    -0.011206     0.004700     0.001125
atom     40.611866   -24.929119    51.639980  O        0.000000     0.000000    -0.024728    -0.004810    -0.001293
atom     41.741051   -26.041897    50.730434  H        0.000000     0.000000    -0.005196     0.005076    -0.003610
atom     38.867393   -25.013582    50.947861  H        0.000000     0.000000     0.034292     0.000418     0.008977
atom     59.516132   -85.128975    29.437210  O        0.000000     0.000000     0.027378    -0.003754     0.032884
atom     61.205063   -84.400085    29.290169  H        0.000000     0.000000    -0.014029     0.002682    -0.007078
atom     59.724823   -86.096169    31.073795  H        0.000000     0.000000    -0.011812     0.007067    -0.030783
atom    -26.945011    20.982550    18.389080  O        0.000000     0.000000    -0.013157     0.001192     0.012850
atom    -26.719635    22.224066    19.764009  H        0.000000     0.000000    -0.000397    -0.004872    -0.009822
atom    -28.710814    20.428576    18.520252  H        0.000000     0.000000     0.009600     0.001245    -0.003211
atom     44.906101    -3.928591     2.679902  O        0.000000     0.000000     0.031956     0.007102    -0.027347
atom     46.418697    -4.671336     3.430760  H        0.000000     0.000000    -0.010464    -0.001915     0.006060
atom     45.662739    -3.228178     1.090052  H        0.000000     0.000000    -0.021999    -0.012721     0.022542
atom    -39.437855    49.224091    67.522202  O        0.000000     0.000000     0.027311    -0.025304     0.012161
atom    -38.126770    48.281509    68.490662  H        0.000000     0.000000    -0.019819     0.021606    -0.015044
atom    -38.933167    48.943127    65.737785  H        0.000000     0.000000     0.004901     0.006286     0.009830
atom    -16.659214   -49.581192    -8.767471  O        0.000000     0.000000    -0.006647     0.016279    -0.046209
atom    -16.273970   -47.754574    -8.923672  H        0.000000     0.000000     0.002014    -0.015543     0.016941
atom    -17.172812   -49.795849   -10.554828  H        0.000000     0.000000    -0.001001    -0.009362     0.025976
atom     48.283123    48.599487   -20.911869  O        0.000000     0.000000    -0.000537    -0.010760    -0.018049
atom     49.640762    47.436234   -20.444921  H        0.000000     0.000000    -0.003848     0.003205    -0.004001
atom     47.638744    47.989910   -22.574184  H        0.000000     0.000000     0.001279     0.014629     0.022053
atom     33.243786    22.426960    30.103386  Cl       0.000000     0.000000    -0.006115    -0.004854     0.000781
atom     49.155285    63.231243   -17.463223  Cl       0.000000     0.000000     0.011134     0.003780    -0.006163
energy  -1159.602620
charge      0.000000
end
begin
lattice        23.470398        0.000000        0.000000
lattice         0.000000       23.470398        0.000000
lattice         0.000000        0.000000       23.470398
atom     64.557396    28.209848    23.594946  Na       0.000000     0.000000     0.005319    -0.003074     0.013722
atom     63.671711    32.132088    17.694132  Na       0.000000     0.000000    -0.005333     0.006770    -0.003745
atom      0.401949    53.465321   -11.410847  O        0.000000     0.000000     0.019033    -0.003999    -0.020632
atom      0.087907    51.695789   -11.946412  H        0.000000     0.000000    -0.000227     0.018229     0.006379
atom      1.101299    54.356770   -12.927158  H        0.000000     0.000000    -0.020129    -0.017731     0.020379
atom    -44.679031     9.869349   -23.948793  O        0.000000     0.000000    -0.007463    -0.036297     0.004429
atom    -43.892475     8.134418   -23.799675  H        0.000000     0.000000    -0.005951     0.031859     0.003480
atom    -46.326992     9.465507   -23.177780  H        0.000000     0.000000     0.011182     0.010501    -0.008199
atom    -46.568161   -80.681969     6.062620  O        0.000000     0.000000    -0.009350    -0.027750    -0.026062
atom    -46.743816   -82.500443     5.615545  H        0.000000     0.000000     0.007797     0.019024     0.002434
atom    -47.869999   -80.594162     7.288152  H        0.000000     0.000000    -0.008133     0.011670     0.013111
atom     -4.477703    16.882713    -6.623045  O        0.000000     0.000000    -0.008930     0.022938     0.003705
atom     -5.695232    18.138823    -7.254064  H        0.000000     0.000000     0.008558    -0.014297    -0.001558
atom     -3.743822    17.723412    -5.171562  H        0.000000     0.000000     0.000224    -0.007859    -0.007750
atom      5.690911    62.688072   -28.662981  O        0.000000     0.000000     0.014578    -0.005760    -0.010318
atom      7.264884    63.408134   -28.054518  H        0.000000     0.000000    -0.001428    -0.000296     0.000169
atom      6.195484    60.977383   -29.233835  H        0.000000     0.000000    -0.012059     0.012881     0.009779
atom    -43.127304    27.235050    65.661377  O        0.000000     0.000000     0.034486    -0.004008     0.026873
atom    -42.683884    28.856459    64.929787  H        0.000000     0.000000    -0.005993    -0.007068    -0.002671
atom    -41.625633    26.949394    66.788185  H        0.000000     0.000000    -0.029866     0.004919    -0.020473
atom    -34.981136    32.474693    10.640121  O        0.000000     0.000000    -0.036077     0.015058     0.008173
atom    -36.053673    32.419727     9.111078  H        0.000000     0.000000     0.018857    -0.007220     0.007236
atom    -36.279217    33.246323    11.826683  H        0.000000     0.000000     0.026319    -0.012914    -0.022086
atom     86.449783   -49.984032    36.868595  O        0.000000     0.000000     0.001597    -0.010585    -0.018990
atom     86.985718   -50.277153    35.102814  H        0.000000     0.000000    -0.005361     0.003061     0.023632
atom     87.206757   -48.465794    37.493149  H        0.000000     0.000000     0.005173     0.009506    -0.004035
atom     45.815247    48.062874    34.931087  O        0.000000     0.000000     0.018357    -0.022819     0.031581
atom     47.434204    47.094810    34.709850  H        0.000000     0.000000    -0.012554     0.015212    -0.003568
atom     45.385632    47.742035    36.750126  H        0.000000     0.000000    -0.000450     0.012243    -0.030510
atom    -24.780060   -13.691288   -28.267637  O        0.000000     0.000000    -0.032310     0.009432    -0.014254
atom    -23.112352   -13.376282   -27.771973  H        0.000000     0.000000     0.023028     0.002914     0.011664
atom    -25.231762   -15.241697   -27.461021  H        0.000000     0.000000     0.005714    -0.012477     0.006897
atom    -31.174368   -10.622184    10.876413  O        0.000000     0.000000    -0.005304    -0.064175    -0.050786
atom    -31.976738   -12.176600     9.935799  H        0.000000     0.000000     0.022112     0.048164     0.021452
atom    -32.405224   -10.616163    12.155790  H        0.000000     0.000000    -0.018509     0.019326     0.028726
atom     20.269594    37.844975    21.999859  O        0.000000     0.000000     0.006658    -0.042692    -0.012903
atom     19.542791    36.853577    23.431204  H        0.000000     0.000000     0.010917     0.013945    -0.025712
atom     20.844194    36.550961    20.674408  H        0.000000     0.000000    -0.014538     0.027083     0.035610
atom     18.266951   -17.108891   -64.033035  O        0.000000     0.000000    -0.019368    -0.007687     0.025375
atom     18.071409   -18.883730   -63.596897  H        0.000000     0.000000     0.010285     0.003225    -0.007694
atom     17.056379   -16.395586   -62.830353  H        0.000000     0.000000     0.011921     0.002868    -0.014872
atom     62.441044   -18.585257    43.632874  O        0.000000     0.000000    -0.030054    -0.013521    -0.033556
atom     63.248436   -19.949516    42.590065  H        0.000000     0.000000    -0.014939     0.016302     0.009024
atom     60.564358   -18.773771    43.422680  H        0.000000     0.000000     0.039957    -0.000326     0.003377
atom      7.600384    11.420727   -34.595032  O        0.000000     0.000000    -0.036920    -0.001010    -0.018546
atom      6.493599    10.182177   -33.729130  H        0.000000     0.000000     0.013426     0.014618    -0.011178
atom      6.545836    12.102353   -36.083500  H        0.000000     0.000000     0.024416    -0.017976     0.026616
atom    -41.645126    22.734890    15.354838  O        0.000000     0.000000     0.014131     0.000421    -0.006785
atom    -43.019806    21.760155    16.062675  H        0.000000     0.000000    -0.004126    -0.007031     0.010817
atom    -41.404167    24.117516    16.484362  H        0.000000     0.000000    -0.007930     0.007230     0.003823
atom     35.031429     2.638714    53.219421  O        0.000000     0.000000    -0.000680    -0.025758     0.027963
atom     36.334518     1.315517    53.482391  H        0.000000     0.000000    -0.018672     0.015042    -0.007817
atom     33.878525     2.472209    54.728210  H        0.000000     0.000000     0.018229     0.007285    -0.022202
atom    -19.596613   -18.102968     1.086848  O        0.000000     0.000000     0.009269    -0.038546    -0.005671
atom    -20.311930   -19.693512     0.401272  H        0.000000     0.000000     0.002508     0.016875     0.008637
atom    -17.982599   -18.808607     1.672415  H        0.000000     0.000000    -0.009620     0.007503     0.001949
atom    -11.407221    89.383957    51.457794  O        0.000000     0.000000     0.001902    -0.000221     0.005806
atom    -12.831647    89.181602    52.607784  H        0.000000     0.000000     0.002857    -0.000351     0.004980
atom    -11.621454    88.135918    50.184685  H        0.000000     0.000000    -0.002197    -0.004875    -0.009340
atom     28.170195    60.341091     8.345515  O        0.000000     0.000000    -0.026967     0.008378    -0.003872
atom     26.771790    60.173740     7.017975  H        0.000000     0.000000     0.026766     0.001470     0.031625
atom     27.259947    61.232803     9.702462  H        0.000000     0.000000     0.011845    -0.002244    -0.012151
atom    -13.434728    78.029793   -41.067593  O        0.000000     0.000000     0.008107     0.003303     0.001399
atom    -14.649231    76.804131   -40.504059  H        0.000000     0.000000    -0.000541     0.002084    -0.002488
atom    -14.246068    79.305138   -42.063248  H        0.000000     0.000000    -0.016151     0.004132    -0.001622
atom     48.495335   -23.217587    47.185490  O        0.000000     0.000000    -0.016376    -0.021483    -0.008361
atom     48.746346   -24.517019    48.486347  H        0.000000     0.000000    -0.000628     0.010391    -0.008533
atom     47.297070   -24.007973    45.962849  H        0.000000     0.000000     0.016591     0.011561     0.017339
atom     35.434219     0.163700    18.910597  O        0.000000     0.000000    -0.010381    -0.007982     0.003045
atom     33.776711     0.043365    19.759386  H        0.000000     0.000000     0.015225     0.003564    -0.013636
atom     35.967258    -1.594434    18.719030  H        0.000000     0.000000    -0.006431     0.013491     0.000715