begin
comment i = 20027, time = 20027.000, E = -1132.4335669085
lattice        23.470398        0.000000        0.000000
lattice         0.000000       23.470398        0.000000
lattice         0.000000        0.000000       23.470398
atom     14.090387     3.083844     2.743520  Na       0.000000     0.000000     0.012841    -0.003527    -0.013890
atom     -3.214692     7.842315     4.629412  O        0.000000     0.000000    -0.016140    -0.015897    -0.015825
atom     -4.158804     6.733008     3.443763  H        0.000000     0.000000     0.001363     0.010818     0.009658
atom     -2.559294     9.079069     3.472781  H        0.000000     0.000000     0.011931     0.001657     0.005845
atom     18.043375     0.001264    17.555996  O        0.000000     0.000000     0.004263    -0.003749    -0.000586
atom     17.997163     1.814641    16.923519  H        0.000000     0.000000    -0.014326    -0.030868    -0.008176
atom     17.322812    -1.220277    16.316674  H        0.000000     0.000000     0.004426     0.026963     0.007427
atom     17.214509    18.029281     4.356050  O        0.000000     0.000000     0.002182     0.031724    -0.038205
atom     16.368545    18.398588     2.626883  H        0.000000     0.000000     0.010920    -0.016704     0.033566
atom     18.434035    19.441680     4.528372  H        0.000000     0.000000    -0.011494    -0.013892     0.002924
atom     13.052658    22.475021    28.131993  O        0.000000     0.000000     0.042694    -0.041523     0.015494
atom     14.390141    21.079812    27.721545  H        0.000000     0.000000    -0.046255     0.042780     0.015231
atom     12.954897    22.444885    30.041453  H        0.000000     0.000000     0.000754    -0.004062    -0.026448
atom      2.673278    12.555290    35.522163  O        0.000000     0.000000    -0.021411    -0.010237     0.033686
atom      3.432002    12.514358    37.188450  H        0.000000     0.000000     0.000356     0.002905    -0.000072
atom      4.001040    13.022026    34.448480  H        0.000000     0.000000     0.023508     0.004245    -0.027622
atom     13.892097     5.161423     6.326030  O        0.000000     0.000000    -0.028990     0.001526     0.027871
atom     13.698526     6.654569     7.346442  H        0.000000     0.000000     0.017834     0.019596    -0.002035
atom     12.209149     4.547300     6.880596  H        0.000000     0.000000     0.011649    -0.013885    -0.010850
atom     23.375052    -1.404954    -4.952433  O        0.000000     0.000000    -0.023069     0.028129    -0.034582
atom     22.492454    -0.291448    -6.251376  H        0.000000     0.000000     0.019378    -0.032053     0.026547
atom     22.983540    -0.391374    -3.483117  H        0.000000     0.000000     0.000787    -0.000263     0.011196
atom     14.699491    12.625377     3.944653  O        0.000000     0.000000    -0.007269    -0.007958    -0.018460
atom     14.886358    12.583018     5.719232  H        0.000000     0.000000     0.007545     0.002553     0.013373
atom     13.217036    13.653230     3.720658  H        0.000000     0.000000     0.001057     0.004070     0.003143
atom     13.002007     9.827280     9.461833  O        0.000000     0.000000    -0.009439     0.028183    -0.035476
atom     13.726800    10.242915    11.057216  H        0.000000     0.000000     0.008965     0.002332     0.014962
atom     12.879979    11.487021     8.559247  H        0.000000     0.000000     0.000671    -0.032532     0.021393
atom      6.171217    13.525207    23.400024  O        0.000000     0.000000    -0.019466     0.009125     0.004818
atom      4.905028    14.868880    22.964904  H        0.000000     0.000000     0.014509    -0.031432     0.008487
atom      5.389767    12.040768    24.206137  H        0.000000     0.000000     0.005164     0.022865    -0.010611
atom      5.703778    36.019399     7.891166  O        0.000000     0.000000     0.006809    -0.002768    -0.003270
atom      5.322335    34.385669     7.191069  H        0.000000     0.000000    -0.000075    -0.000697    -0.003735
atom      7.166513    36.566915     6.947630  H        0.000000     0.000000    -0.002826     0.003181     0.002584
atom     16.078613    20.502400    13.371636  O        0.000000     0.000000    -0.010186     0.029145    -0.000875
atom     16.152742    18.701261    13.503923  H        0.000000     0.000000     0.007223    -0.011769    -0.000866
atom     17.514941    21.094217    12.391070  H        0.000000     0.000000     0.002403    -0.009929    -0.000357
atom     17.806450    10.289878    21.596242  O        0.000000     0.000000     0.066184    -0.005275     0.021596
atom     16.209016    10.836701    21.249595  H        0.000000     0.000000    -0.057429     0.010645    -0.012254
atom     18.536655    11.620191    22.685388  H        0.000000     0.000000    -0.004639    -0.009009    -0.010487
atom     28.276853    -5.250386     7.459000  O        0.000000     0.000000     0.006110    -0.011413     0.017991
atom     26.817144    -6.403505     7.529461  H        0.000000     0.000000     0.013684     0.008028    -0.006441
atom     29.565128    -5.952990     8.608894  H        0.000000     0.000000    -0.019098     0.006486    -0.007128
atom      0.734862    11.341834     2.526139  O        0.000000     0.000000    -0.019568     0.023264    -0.008797
atom     -0.479049    12.721817     2.160631  H        0.000000     0.000000     0.008709    -0.019925    -0.005011
atom      1.812568    12.246141     3.644001  H        0.000000     0.000000     0.010586    -0.002187     0.011063
atom      2.551935    -0.921201    11.021481  O        0.000000     0.000000     0.002318    -0.012350    -0.012693
atom      2.996069    -1.600103    12.680237  H        0.000000     0.000000     0.002969     0.005075     0.005404
atom      3.489726    -2.012923     9.853452  H        0.000000     0.000000    -0.009317     0.010219     0.004129
atom     15.432979    15.823342     8.876801  O        0.000000     0.000000    -0.035419     0.012785    -0.002993
atom     16.815388    14.839630     9.340788  H        0.000000     0.000000     0.028957    -0.015182     0.004938
atom     15.848018    16.728040     7.350930  H        0.000000     0.000000     0.007446    -0.002637    -0.002329
atom     -2.590667    -1.746059     5.620601  O        0.000000     0.000000     0.031115    -0.005923    -0.018973
atom     -2.492487     0.059349     5.530433  H        0.000000     0.000000    -0.007604     0.015354     0.004757
atom     -0.885464    -2.026237     4.869822  H        0.000000     0.000000    -0.015624    -0.005539     0.003767
atom     19.844468    14.473541     0.789262  O        0.000000     0.000000    -0.003976    -0.011174     0.028559
atom     19.177320    15.369002     2.251977  H        0.000000     0.000000    -0.005362    -0.010097    -0.002500
atom     20.341288    15.805396    -0.264823  H        0.000000     0.000000     0.010274     0.017596    -0.022624
atom     19.606904    -5.607740    -3.478620  O        0.000000     0.000000    -0.018005     0.020603    -0.001464
atom     18.004520    -5.056652    -2.672464  H        0.000000     0.000000     0.021963    -0.003140    -0.012591
atom     20.422650    -4.162010    -4.347146  H        0.000000     0.000000    -0.009098    -0.009049     0.015899
atom     -1.039890    13.946343    18.570062  O        0.000000     0.000000    -0.021690     0.006334    -0.024993
atom     -2.586376    14.942216    19.022203  H        0.000000     0.000000     0.026825    -0.015936    -0.006528
atom     -1.072512    13.845675    16.698251  H        0.000000     0.000000     0.000331     0.006964     0.027385
atom     20.387379    21.732905    10.630963  O        0.000000     0.000000     0.033069     0.012272    -0.006746
atom     20.561247    21.480230     8.765145  H        0.000000     0.000000    -0.000205     0.001195     0.022351
atom     22.135346    22.264210    11.160543  H        0.000000     0.000000    -0.028081    -0.011078    -0.011745
atom      4.127137     3.239139     4.314721  O        0.000000     0.000000    -0.010173     0.022465     0.049057
atom      5.364663     3.095136     5.830833  H        0.000000     0.000000    -0.027631     0.001471    -0.034124
atom      2.499250     3.939737     5.083431  H        0.000000     0.000000     0.033774    -0.017981    -0.015767
atom     11.560018    31.568938    25.327588  O        0.000000     0.000000    -0.000808    -0.000421    -0.005161
atom     12.406737    32.794701    26.359944  H        0.000000     0.000000     0.007789     0.000333     0.001533
atom     11.791080    32.180757    23.564494  H        0.000000     0.000000    -0.001834     0.002338     0.008321
atom      6.157750     3.246378    -3.013882  O        0.000000     0.000000    -0.004444     0.028936     0.010488
atom      6.445266     4.603032    -1.679943  H        0.000000     0.000000    -0.016210    -0.033041    -0.039085
atom      5.012209     3.854019    -4.395362  H        0.000000     0.000000     0.018337    -0.004039     0.029439
atom     -1.099918    15.824373   -10.757242  O        0.000000     0.000000     0.030852    -0.002932    -0.008015
atom      0.381105    14.631452   -11.167804  H        0.000000     0.000000    -0.027267     0.020161     0.004885
atom     -0.496966    17.497166   -11.262166  H        0.000000     0.000000    -0.009585    -0.016709     0.005157
atom     10.365158    15.608143     5.571800  O        0.000000     0.000000     0.004991     0.004105     0.014064
atom      9.512208    16.590317     4.327208  H        0.000000     0.000000    -0.007503     0.004763    -0.011530
atom     10.925564    16.883006     6.763501  H        0.000000     0.000000     0.002061    -0.011660    -0.005975
atom     12.201132     9.875190    -2.699516  O        0.000000     0.000000    -0.023996    -0.007614    -0.028467
atom     10.935937     8.978462    -3.829063  H        0.000000     0.000000     0.022472     0.017925     0.015877
atom     11.819821    11.671896    -2.938958  H        0.000000     0.000000    -0.003463    -0.006272     0.001511
atom      1.784959    -0.686512     2.382700  O        0.000000     0.000000     0.005473     0.008098    -0.000345
atom      2.837816     0.643279     3.226708  H        0.000000     0.000000    -0.007210    -0.007915    -0.003970
atom      2.900021    -1.270839     1.038095  H        0.000000     0.000000    -0.004318    -0.005785     0.004866
atom     16.789402     4.083637    15.132469  O        0.000000     0.000000     0.022018     0.032641    -0.015387
atom     17.826627     5.699191    15.620377  H        0.000000     0.000000    -0.024545    -0.037477    -0.011992
atom     17.153636     3.710910    13.282370  H        0.000000     0.000000    -0.004081     0.012154     0.031261
atom     10.822318     4.223364    14.313958  O        0.000000     0.000000     0.004137     0.011645    -0.035170
atom     12.647774     4.517189    14.230918  H        0.000000     0.000000    -0.009763    -0.002242     0.003571
atom     10.102098     4.881082    12.688865  H        0.000000     0.000000     0.013576    -0.013773     0.030518
atom      9.081337    23.841337    -6.058849  O        0.000000     0.000000     0.014113     0.000790    -0.014480
atom      8.297282    24.886314    -4.800498  H        0.000000     0.000000    -0.007059     0.003130     0.011427
atom      9.965694    25.059580    -7.122930  H        0.000000     0.000000    -0.003795    -0.008759    -0.000839
atom     12.109345    21.675033     9.794692  O        0.000000     0.000000     0.018916     0.003910     0.018537
atom     13.476914    21.515930    11.092402  H        0.000000     0.000000    -0.012859    -0.004965    -0.014333
atom     11.265221    23.228624    10.242571  H        0.000000     0.000000    -0.004583    -0.002229    -0.003511
atom     -0.754306     3.532119     6.676996  O        0.000000     0.000000     0.013190    -0.016695     0.017748
atom     -1.888771     4.923091     6.583262  H        0.000000     0.000000    -0.000743     0.016189    -0.002907
atom      0.151145     3.669190     8.304758  H        0.000000     0.000000    -0.008199     0.001257    -0.017581
atom     15.108536     0.028268    21.699385  O        0.000000     0.000000     0.001444     0.004461    -0.026929
atom     13.582922     0.716889    20.925494  H        0.000000     0.000000     0.011313    -0.006016     0.005869
atom     16.383838     0.072874    20.218680  H        0.000000     0.000000    -0.018453    -0.001142     0.020242
atom      6.553864     8.577786    27.208269  O        0.000000     0.000000    -0.021708    -0.031919    -0.000113
atom      8.360927     8.268900    27.077712  H        0.000000     0.000000    -0.009769    -0.000527    -0.006293
atom      5.671931     6.881976    27.027775  H        0.000000     0.000000     0.024552     0.033132     0.005811
atom     -2.895562    11.349582     8.160350  O        0.000000     0.000000    -0.007988    -0.030300     0.013152
atom     -3.716005    10.065912     7.013832  H        0.000000     0.000000     0.019828     0.021173     0.020472
atom     -2.267209    10.305167     9.636174  H        0.000000     0.000000    -0.014085     0.018318    -0.031037
atom      6.987364     7.718322    11.067418  O        0.000000     0.000000     0.003401    -0.002521     0.001351
atom      7.571589     9.370967    10.511646  H        0.000000     0.000000    -0.002473    -0.013633     0.001021
atom      7.559541     6.391268     9.894764  H        0.000000     0.000000     0.002655     0.014767    -0.000690
atom      0.028356    15.768779     6.423667  O        0.000000     0.000000    -0.029960     0.046217    -0.016491
atom     -1.344518    17.058243     6.072491  H        0.000000     0.000000     0.036528    -0.030819     0.009858
atom     -0.937708    14.295632     6.796504  H        0.000000     0.000000    -0.007266    -0.019392     0.011186
atom      2.247287     9.394902    18.415283  O        0.000000     0.000000     0.023501    -0.022077    -0.009961
atom      3.820021    10.299038    17.787125  H        0.000000     0.000000    -0.034119     0.000672     0.019583
atom      0.889725    10.507005    18.825348  H        0.000000     0.000000     0.004361     0.016248    -0.000785
atom     32.242474    17.444310    11.615247  O        0.000000     0.000000    -0.007024     0.006032     0.018654
atom     32.239944    18.383046    13.255893  H        0.000000     0.000000     0.001396    -0.017770    -0.022119
atom     33.448146    18.282691    10.568871  H        0.000000     0.000000     0.007293     0.009906     0.003729
atom     18.023607     5.555869     0.623022  O        0.000000     0.000000     0.017739    -0.034914     0.012522
atom     19.481758     4.403153     0.268250  H        0.000000     0.000000    -0.018844     0.016097    -0.004615
atom     18.224942     7.111544    -0.272983  H        0.000000     0.000000    -0.001366     0.009212    -0.011015
atom     19.271656     8.130162    16.691246  O        0.000000     0.000000     0.006260     0.019548     0.038199
atom     20.741990     8.559011    15.671029  H        0.000000     0.000000    -0.005508    -0.001791     0.007126
atom     19.384246     8.809397    18.505888  H        0.000000     0.000000    -0.001309    -0.011963    -0.045338
atom      2.315463     4.056400    -7.241979  O        0.000000     0.000000     0.012002    -0.008486    -0.002302
atom      3.056564     5.335041    -8.287458  H        0.000000     0.000000    -0.001170    -0.001079    -0.004988
atom      1.546728     5.043029    -5.973694  H        0.000000     0.000000    -0.012211     0.012091     0.012239
atom     14.615528    10.973621    14.574543  O        0.000000     0.000000    -0.009787    -0.043013     0.000811
atom     15.577280    12.414786    14.872630  H        0.000000     0.000000     0.018758     0.037772     0.003005
atom     15.528706     9.674550    15.506762  H        0.000000     0.000000    -0.006552     0.005855    -0.008529
atom     -0.926995     8.159787    12.116564  O        0.000000     0.000000    -0.009578     0.000814     0.004051
atom     -0.336094     6.468289    11.692351  H        0.000000     0.000000     0.007717     0.015078     0.003641
atom      0.471977     9.329380    12.126079  H        0.000000     0.000000     0.006626    -0.007915    -0.002371
atom     14.676159    -4.927265     0.006790  O        0.000000     0.000000    -0.041318     0.006486    -0.046612
atom     13.254444    -6.017417    -0.667723  H        0.000000     0.000000     0.027195     0.008949     0.016678
atom     14.290082    -3.322505    -0.966885  H        0.000000     0.000000     0.016830    -0.012915     0.024031
atom      8.810958    18.484358    16.978500  O        0.000000     0.000000    -0.010143    -0.000765    -0.002185
atom      6.961045    18.495500    17.133419  H        0.000000     0.000000     0.018607     0.009136    -0.001248
atom      9.381477    20.239177    17.118624  H        0.000000     0.000000    -0.011876    -0.006806     0.005932
atom     17.529220    15.838683    -8.614120  O        0.000000     0.000000     0.018573     0.002911     0.037624
atom     19.118763    15.591313    -9.511889  H        0.000000     0.000000    -0.000530     0.001644    -0.004287
atom     18.157004    16.438400    -6.915525  H        0.000000     0.000000    -0.017969    -0.010833    -0.032956
atom      7.720255    20.211023     3.381889  O        0.000000     0.000000     0.016023    -0.005107     0.021305
atom      9.201776    21.110704     4.049315  H        0.000000     0.000000    -0.012567    -0.005697    -0.009699
atom      6.911885    19.407733     4.862861  H        0.000000     0.000000    -0.004936     0.012610    -0.015007
atom     17.812137     3.441970    10.276784  O        0.000000     0.000000    -0.016691     0.028688    -0.031336
atom     18.835243     2.025752     9.884827  H        0.000000     0.000000     0.008356    -0.013738    -0.005759
atom     17.228236     4.270605     8.670951  H        0.000000     0.000000     0.008112    -0.020905     0.033125
atom      9.943841     3.196857     2.044938  O        0.000000     0.000000    -0.007171    -0.006192     0.007140
atom      9.539467     2.687820     3.809432  H        0.000000     0.000000    -0.001637     0.018693    -0.025280
atom     10.061821     5.037122     1.850119  H        0.000000     0.000000    -0.002860    -0.012953     0.015752
atom     -1.296095     2.074359    22.617582  O        0.000000     0.000000     0.027756     0.021579    -0.014636
atom     -0.246553     1.225575    23.940839  H        0.000000     0.000000    -0.005135     0.009989    -0.011206
atom     -0.165350     3.430230    21.833289  H        0.000000     0.000000    -0.022188    -0.029471     0.032304
atom     10.498106    15.095096    -2.523410  O        0.000000     0.000000     0.005359    -0.002959     0.016131
atom      9.686015    16.048758    -3.904391  H        0.000000     0.000000     0.000910    -0.006215     0.018923
atom      9.367635    14.576046    -1.095215  H        0.000000     0.000000     0.000352     0.012502    -0.034950
atom     28.927253    21.272630    -1.415781  O        0.000000     0.000000     0.026706     0.032056     0.024520
atom     29.325365    23.140755    -1.584220  H        0.000000     0.000000    -0.008178    -0.037158    -0.000460
atom     30.043742    20.685852     0.019785  H        0.000000     0.000000    -0.020850     0.010941    -0.022338
atom      8.337049     7.568589    17.397111  O        0.000000     0.000000     0.002919    -0.024463    -0.005971
atom      8.072837     8.418198    15.819843  H        0.000000     0.000000     0.000540     0.006359    -0.001876
atom      8.821873     5.858407    16.776842  H        0.000000     0.000000    -0.001610     0.027460     0.010788
atom      2.099868     6.398399    22.795935  O        0.000000     0.000000     0.010628     0.018678    -0.054020
atom      2.442707     7.483194    21.162943  H        0.000000     0.000000    -0.010119    -0.019559     0.047618
atom      2.200506     7.515724    24.207548  H        0.000000     0.000000    -0.003235     0.007552    -0.000164
atom    -13.936212    12.670511    14.011479  O        0.000000     0.000000    -0.038402    -0.024363     0.028704
atom    -12.515262    11.632189    13.929752  H        0.000000     0.000000     0.029014    -0.011529     0.001656
atom    -13.734920    14.047981    12.955377  H        0.000000     0.000000     0.005107     0.036544    -0.025436
atom      5.311010    13.079234    17.216628  O        0.000000     0.000000     0.021399    -0.001510    -0.010531
atom      7.112436    13.047185    16.762109  H        0.000000     0.000000    -0.013650     0.001112    -0.001359
atom      5.113582    14.261970    18.590188  H        0.000000     0.000000    -0.004017     0.000818    -0.000124
atom      2.760233     4.516844    10.745235  O        0.000000     0.000000    -0.012665    -0.009753     0.001505
atom      3.102439     2.770981    11.246541  H        0.000000     0.000000     0.005521     0.010015    -0.005021
atom      4.209749     5.615321    10.912033  H        0.000000     0.000000    -0.000009    -0.004107    -0.001503
atom      3.104438    -6.527135    20.259275  O        0.000000     0.000000     0.013890     0.005327     0.006503
atom      1.473419    -6.947315    19.582257  H        0.000000     0.000000    -0.002801     0.002555    -0.000678
atom      3.378730    -4.713716    20.463733  H        0.000000     0.000000    -0.005325    -0.011715    -0.001079
atom     27.753699    21.550042    15.583874  O        0.000000     0.000000    -0.035742    -0.028910     0.010492
atom     29.131373    22.659102    15.569966  H        0.000000     0.000000     0.019057     0.020591     0.012942
atom     26.604265    21.804058    17.048549  H        0.000000     0.000000     0.016211     0.005858    -0.017945
atom      8.409199     2.947073     8.026282  Cl       0.000000     0.000000     0.010322    -0.000608     0.004756
energy  -1131.779020
charge      0.000000
end
begin
comment i = 20031, time = 20031.000, E = -1132.4353117380
lattice        23.470398        0.000000        0.000000
lattice         0.000000       23.470398        0.000000
lattice         0.000000        0.000000       23.470398
atom     14.053453     3.111115     2.749396  Na       0.000000     0.000000     0.017357    -0.000269    -0.012199
atom     -3.251323     7.824399     4.607162  O        0.000000     0.000000    -0.003432    -0.005635     0.002526
atom     -4.054395     6.702942     3.409972  H        0.000000     0.000000    -0.015753    -0.006524    -0.002557
atom     -2.562077     9.002298     3.435275  H        0.000000     0.000000     0.017061     0.011153     0.001478
atom     18.035643    -0.005753    17.527048  O        0.000000     0.000000     0.020177    -0.011615     0.035929
atom     17.953114     1.768081    17.038422  H        0.000000     0.000000    -0.013440    -0.007051    -0.019329
atom     17.349502    -1.162596    16.327204  H        0.000000     0.000000    -0.009085     0.006339    -0.018220
atom     17.206412    18.025711     4.312810  O        0.000000     0.000000     0.029207    -0.000886     0.033560
atom     16.368033    18.310710     2.775347  H        0.000000     0.000000    -0.018110     0.002426    -0.032403
atom     18.553528    19.273405     4.481610  H        0.000000     0.000000    -0.009455     0.000571     0.000171
atom     13.085948    22.452384    28.095251  O        0.000000     0.000000     0.005762    -0.006196     0.035026
atom     14.271616    21.093130    27.776202  H        0.000000     0.000000    -0.007543     0.006029    -0.000541
atom     12.942449    22.425408    30.015027  H        0.000000     0.000000    -0.000884    -0.000107    -0.030009
atom      2.642408    12.559349    35.566128  O        0.000000     0.000000     0.047793     0.005084    -0.022021
atom      3.482692    12.478992    37.187315  H        0.000000     0.000000    -0.002154     0.003042     0.004080
atom      4.168141    12.943476    34.382175  H        0.000000     0.000000    -0.042371    -0.013100     0.020146
atom     13.888950     5.159686     6.313117  O        0.000000     0.000000    -0.056236     0.024840     0.070207
atom     13.802558     6.739205     7.452773  H        0.000000     0.000000     0.008718    -0.029562    -0.032359
atom     12.162032     4.409641     6.992193  H        0.000000     0.000000     0.045717     0.012608    -0.021067
atom     23.357415    -1.418930    -4.992287  O        0.000000     0.000000    -0.013371     0.021017     0.021105
atom     22.493951    -0.347537    -6.204618  H        0.000000     0.000000     0.002488    -0.008846     0.001076
atom     22.965558    -0.421297    -3.423025  H        0.000000     0.000000     0.006629    -0.015062    -0.018552
atom     14.701940    12.599132     3.932604  O        0.000000     0.000000    -0.010893     0.004334     0.023498
atom     15.116284    12.646563     5.772686  H        0.000000     0.000000    -0.007898     0.004270    -0.036513
atom     13.239014    13.739274     3.744062  H        0.000000     0.000000     0.018289    -0.010042     0.011436
atom     12.953263     9.821601     9.517528  O        0.000000     0.000000     0.013248     0.015986     0.017690
atom     13.726278    10.341588    11.179728  H        0.000000     0.000000    -0.008441    -0.011479    -0.024789
atom     12.979251    11.360879     8.524257  H        0.000000     0.000000    -0.002618    -0.008038     0.007259
atom      6.147324    13.497341    23.383987  O        0.000000     0.000000    -0.000259    -0.038511     0.021461
atom      4.880090    14.733889    23.051671  H        0.000000     0.000000    -0.013581     0.000319    -0.001830
atom      5.384645    11.914292    24.122587  H        0.000000     0.000000     0.014124     0.038469    -0.015478
atom      5.739050    36.001199     7.893158  O        0.000000     0.000000     0.003940     0.012041     0.009251
atom      5.254517    34.386225     7.227762  H        0.000000     0.000000     0.011877     0.000436    -0.011110
atom      7.253408    36.690575     7.100030  H        0.000000     0.000000    -0.011639    -0.013125    -0.000191
atom     16.035472    20.548416    13.381670  O        0.000000     0.000000     0.014963    -0.008090    -0.017673
atom     16.176009    18.677116    13.474463  H        0.000000     0.000000    -0.001218     0.020637     0.000078
atom     17.483127    21.028555    12.272225  H        0.000000     0.000000    -0.014358    -0.006798     0.015297
atom     17.807668    10.304112    21.569010  O        0.000000     0.000000    -0.010253     0.013633     0.003100
atom     16.088090    10.930358    21.260340  H        0.000000     0.000000     0.016533    -0.015496     0.002814
atom     18.570659    11.617093    22.632007  H        0.000000     0.000000    -0.002479    -0.004408    -0.004819
atom     28.266755    -5.278316     7.441854  O        0.000000     0.000000     0.002505    -0.036801     0.027283
atom     26.778066    -6.493378     7.579217  H        0.000000     0.000000     0.030866     0.024489    -0.010564
atom     29.639221    -6.066040     8.502887  H        0.000000     0.000000    -0.032964     0.016173    -0.013867
atom      0.746164    11.373950     2.514956  O        0.000000     0.000000     0.007712     0.012319     0.010188
atom     -0.417904    12.750207     2.144521  H        0.000000     0.000000     0.004952    -0.004733    -0.001829
atom      1.887599    12.084454     3.783480  H        0.000000     0.000000    -0.012537    -0.007115    -0.011856
atom      2.541042    -0.866384    11.034871  O        0.000000     0.000000     0.006866    -0.021545    -0.017352
atom      2.975805    -1.646459    12.660850  H        0.000000     0.000000     0.001940     0.009473     0.003082
atom      3.465606    -1.942740     9.817717  H        0.000000     0.000000    -0.012334     0.014147     0.009401
atom     15.430078    15.817426     8.847742  O        0.000000     0.000000     0.033448    -0.013879    -0.013513
atom     16.949096    14.775435     9.245417  H        0.000000     0.000000    -0.024592     0.016932    -0.002847
atom     15.971012    16.666874     7.263005  H        0.000000     0.000000    -0.006659    -0.007044     0.015959
atom     -2.615164    -1.760704     5.615784  O        0.000000     0.000000     0.018759     0.048941    -0.012491
atom     -2.503516     0.177110     5.569650  H        0.000000     0.000000    -0.007970    -0.040892     0.005632
atom     -0.972412    -2.031742     4.821115  H        0.000000     0.000000    -0.000973    -0.005338    -0.002099
atom     19.883103    14.453885     0.785422  O        0.000000     0.000000     0.005011     0.018840    -0.004004
atom     19.109349    15.266546     2.251160  H        0.000000     0.000000    -0.000411    -0.005929    -0.009872
atom     20.209250    15.827452    -0.438255  H        0.000000     0.000000    -0.002876    -0.015545     0.016386
atom     19.594997    -5.570695    -3.465647  O        0.000000     0.000000    -0.025024     0.011586     0.007632
atom     18.018769    -5.018421    -2.602084  H        0.000000     0.000000     0.021343    -0.003554    -0.014138
atom     20.397210    -4.106154    -4.258173  H        0.000000     0.000000    -0.002147    -0.001417     0.008636
atom     -1.044758    13.878617    18.576177  O        0.000000     0.000000     0.008874    -0.003672    -0.032921
atom     -2.461725    14.848450    19.169899  H        0.000000     0.000000    -0.001918     0.001432    -0.002570
atom     -1.036355    14.047929    16.704455  H        0.000000     0.000000    -0.001755     0.001182     0.029157
atom     20.364471    21.777308    10.634707  O        0.000000     0.000000     0.008835     0.005913    -0.008314
atom     20.712743    21.508026     8.844725  H        0.000000     0.000000    -0.013658    -0.005757    -0.003810