begin
lattice        23.470398        0.000000        0.000000
lattice         0.000000       23.470398        0.000000
lattice         0.000000        0.000000       23.470398
atom     10.458023    20.102882    34.032867  Na       0.000000     0.000000    -0.006004     0.006213    -0.001366
atom     15.467308   -31.028399    40.226158  Na       0.000000     0.000000     0.000278    -0.003875     0.000244
atom     42.203293    25.041002     8.007971  Na       0.000000     0.000000     0.001261    -0.003603    -0.005266
atom     18.807299   -14.549903    22.585777  Na       0.000000     0.000000    -0.001698    -0.000975     0.008812
atom    -21.258038    20.280453     8.495415  Na       0.000000     0.000000    -0.001194    -0.003154     0.017984
atom     -3.156751     7.498903    30.161983  Na       0.000000     0.000000     0.009709     0.001410    -0.001942
atom    -12.568140    27.679829    43.225426  O        0.000000     0.000000     0.013659    -0.016458    -0.009372
atom    -12.224475    26.008503    44.024277  H        0.000000     0.000000    -0.002388     0.021755    -0.009565
atom    -11.699747    27.744455    41.599159  H        0.000000     0.000000    -0.006523    -0.006595     0.012653
atom     69.401527    46.765274   -54.630260  O        0.000000     0.000000    -0.002904     0.004412     0.018285
atom     69.337288    46.972206   -52.737061  H        0.000000     0.000000     0.004678    -0.015044    -0.026784
atom     69.824944    45.045227   -55.176712  H        0.000000     0.000000     0.001857     0.006223     0.015581
atom    -22.039528    21.273861   -19.067520  O        0.000000     0.000000     0.000270     0.003560    -0.002127
atom    -21.400385    22.974367   -19.348145  H        0.000000     0.000000     0.006257     0.004744    -0.002446
atom    -23.231329    21.025822   -20.401541  H        0.000000     0.000000    -0.006536    -0.000985    -0.006347
atom     39.830257   -97.421501    92.880318  O        0.000000     0.000000     0.023860     0.010543     0.021977
atom     40.959526   -95.988235    93.302513  H        0.000000     0.000000    -0.008356    -0.016053    -0.008000
atom     40.713638   -98.822632    93.724403  H        0.000000     0.000000    -0.009437     0.011048    -0.012804
atom     -5.185313    23.396955    13.104557  O        0.000000     0.000000    -0.043910     0.021642    -0.002481
atom     -3.957940    24.065414    14.230200  H        0.000000     0.000000     0.021013     0.003582     0.013527
atom     -6.548358    24.714197    13.077478  H        0.000000     0.000000     0.018871    -0.016147    -0.000108
atom    -50.290985     8.111083    37.607201  O        0.000000     0.000000     0.046975    -0.008142     0.009148
atom    -51.612621     8.749458    36.643272  H        0.000000     0.000000    -0.026166     0.013855    -0.015846
atom    -48.824043     9.261002    37.393627  H        0.000000     0.000000    -0.018594    -0.007216     0.007071
atom     55.161503    17.334641    30.974375  O        0.000000     0.000000     0.009655     0.007517     0.009255
atom     54.461697    17.994703    29.418377  H        0.000000     0.000000    -0.009748     0.001752    -0.006178
atom     56.126789    15.917423    30.449217  H        0.000000     0.000000     0.002757    -0.015657    -0.001757
atom     52.722523    18.563150    26.685909  O        0.000000     0.000000    -0.003344     0.010584    -0.004093
atom     53.547634    19.672159    25.481968  H        0.000000     0.000000    -0.003077    -0.008798    -0.001923
atom     51.065163    19.355726    26.917864  H        0.000000     0.000000     0.007220    -0.003152     0.001295
atom      8.188854    30.447018   -16.442440  O        0.000000     0.000000    -0.022062    -0.018808    -0.021931
atom      8.903282    31.998238   -15.961357  H        0.000000     0.000000     0.010525     0.020937     0.001372
atom      7.090891    30.757710   -17.930145  H        0.000000     0.000000     0.013043    -0.002896     0.023974
atom    -21.858484    39.428040    53.865955  O        0.000000     0.000000    -0.005206    -0.003232    -0.031219
atom    -20.425337    38.402626    54.327797  H        0.000000     0.000000    -0.003402    -0.000529    -0.002352
atom    -22.270878    39.052616    52.065056  H        0.000000     0.000000     0.009066     0.005377     0.033223
atom     10.605548    -8.088398    21.342644  O        0.000000     0.000000    -0.001618    -0.032755     0.020764
atom      8.990596    -8.963054    21.620348  H        0.000000     0.000000     0.015198     0.007608     0.003555
atom     11.691976    -8.667678    22.811909  H        0.000000     0.000000    -0.011118     0.015069    -0.023039
atom    -52.491325    -9.405683    20.561480  O        0.000000     0.000000    -0.015450    -0.009226    -0.005854
atom    -52.047421    -9.445606    22.329357  H        0.000000     0.000000    -0.000462     0.004863    -0.002006
atom    -51.095570    -8.482093    19.869726  H        0.000000     0.000000     0.017673     0.005373     0.002409
atom    -15.276471    16.306814   -78.504677  O        0.000000     0.000000    -0.021080    -0.016350    -0.023471
atom    -16.495403    15.592093   -79.754448  H        0.000000     0.000000     0.018323     0.007826     0.019957
atom    -15.557532    15.220551   -77.068970  H        0.000000     0.000000     0.000038     0.000567    -0.000808
atom      0.866697   -12.189125    38.383614  O        0.000000     0.000000     0.037203    -0.060760     0.003693
atom      1.131956   -10.468274    38.578014  H        0.000000     0.000000     0.002357     0.045024     0.002254
atom      2.645912   -12.880569    38.611477  H        0.000000     0.000000    -0.041216     0.015769    -0.006398
atom    -25.405872   -15.760816    42.919598  O        0.000000     0.000000     0.010504     0.005356    -0.001809
atom    -26.352503   -16.312479    41.462402  H        0.000000     0.000000     0.005431     0.007426    -0.003113
atom    -24.076599   -14.633894    42.310741  H        0.000000     0.000000    -0.014344    -0.011312     0.000047
atom     76.699722    11.041193    -5.789459  O        0.000000     0.000000     0.026716    -0.016827    -0.028716
atom     77.644066    10.161139    -7.158143  H        0.000000     0.000000    -0.019645     0.020478     0.011404
atom     77.334564    10.048896    -4.391891  H        0.000000     0.000000    -0.007137    -0.001763     0.014602
atom     68.621742    51.616631    33.671551  O        0.000000     0.000000    -0.002904     0.004248     0.024490
atom     68.167412    52.413303    35.333649  H        0.000000     0.000000     0.004361    -0.008495    -0.023776
atom     69.912895    50.332722    34.063606  H        0.000000     0.000000    -0.002178     0.004288    -0.000980
atom    -33.557507    18.828133    27.917168  O        0.000000     0.000000    -0.000856    -0.006571    -0.007392
atom    -35.133007    18.685333    28.744061  H        0.000000     0.000000    -0.015201     0.015382     0.015213
atom    -33.641914    17.195658    27.109518  H        0.000000     0.000000     0.015199    -0.004010    -0.009680
atom      5.145612    11.516769    58.360321  O        0.000000     0.000000     0.009410    -0.030498    -0.027986
atom      6.849433    11.090804    57.692570  H        0.000000     0.000000    -0.029032     0.006264     0.014341
atom      4.006186    10.245739    57.468700  H        0.000000     0.000000     0.025103     0.026258     0.013206
atom     44.737843   -19.362959     4.140671  O        0.000000     0.000000    -0.016266     0.000450     0.018270
atom     43.849689   -19.543007     2.575834  H        0.000000     0.000000     0.001652     0.000753    -0.007884
atom     46.395702   -19.990168     3.951888  H        0.000000     0.000000     0.020644    -0.004877    -0.007275
atom     34.805920   -23.561390   -71.024002  O        0.000000     0.000000    -0.016689     0.002646    -0.006207
atom     33.268707   -24.493595   -71.499146  H        0.000000     0.000000     0.006934     0.000426     0.006402
atom     36.121128   -24.775225   -71.154564  H        0.000000     0.000000     0.010426    -0.010893    -0.000124
atom    101.184723    36.651337     2.688468  O        0.000000     0.000000    -0.018276    -0.008938    -0.004964
atom     99.962112    35.268044     2.504767  H        0.000000     0.000000     0.011705     0.002711     0.002200
atom    100.128296    38.127018     2.491880  H        0.000000     0.000000     0.007569     0.005090     0.002477
atom    -10.552145    63.508049    59.688389  O        0.000000     0.000000    -0.013041     0.005363     0.005125
atom    -12.179852    63.330383    60.552536  H        0.000000     0.000000     0.005112    -0.004881    -0.001117
atom    -10.511769    62.187370    58.435734  H        0.000000     0.000000     0.002738    -0.003495    -0.000253
atom    -32.390915    -1.506460     9.608773  O        0.000000     0.000000     0.004348    -0.006179    -0.004484
atom    -31.827042    -2.093090    11.227443  H        0.000000     0.000000     0.000985     0.000241     0.002676
atom    -31.461700    -2.574052     8.454817  H        0.000000     0.000000    -0.004930    -0.000880    -0.001789
atom    -58.791435    46.912491    37.946152  O        0.000000     0.000000     0.009696    -0.012185     0.013554
atom    -57.787460    48.382244    37.497219  H        0.000000     0.000000    -0.005294     0.002957    -0.001773
atom    -57.756092    46.116611    39.260414  H        0.000000     0.000000    -0.009864     0.003381    -0.009041
atom    -58.965862   -14.442246   -45.097816  O        0.000000     0.000000    -0.006390     0.011631     0.020037
atom    -58.290726   -15.881898   -44.160992  H        0.000000     0.000000    -0.007924     0.007961    -0.010530
atom    -59.862480   -13.378867   -43.875614  H        0.000000     0.000000     0.009424    -0.011433    -0.010154
atom    -39.333057    19.431021   -25.509251  O        0.000000     0.000000     0.026904    -0.001112    -0.032975
atom    -37.999062    18.086704   -25.723221  H        0.000000     0.000000    -0.021851     0.024882     0.007228
atom    -39.485416    20.267576   -27.230036  H        0.000000     0.000000    -0.005478    -0.010941     0.032388
atom     29.862871    22.829811    -5.622838  O        0.000000     0.000000    -0.002431     0.004169    -0.003369
atom     31.119427    23.699263    -6.582670  H        0.000000     0.000000     0.007874     0.002143    -0.001358
atom     29.137453    24.112038    -4.494168  H        0.000000     0.000000     0.000417    -0.002322    -0.000374
atom     25.748907     8.397024   -15.392179  O        0.000000     0.000000    -0.006111     0.034335    -0.010389
atom     24.334068     9.650826   -15.285225  H        0.000000     0.000000     0.019852    -0.020122     0.003260
atom     25.336082     6.915069   -14.497059  H        0.000000     0.000000    -0.012090    -0.013197     0.008345
atom     16.088947   -46.601387    27.813751  O        0.000000     0.000000    -0.021552    -0.014614    -0.020194
atom     14.591132   -45.442802    27.882191  H        0.000000     0.000000     0.017463    -0.030136    -0.003283
atom     15.636276   -48.301777    26.994503  H        0.000000     0.000000    -0.001956     0.047677     0.026351
atom      7.694556    31.173809    21.607967  O        0.000000     0.000000     0.008432     0.032609     0.034153
atom      8.551850    29.853003    20.787985  H        0.000000     0.000000     0.008408    -0.031604    -0.019831
atom      9.022006    31.573652    22.893257  H        0.000000     0.000000    -0.013700     0.004009    -0.010553
atom     65.593582   -31.685053    36.414787  O        0.000000     0.000000     0.007427    -0.001278     0.003645
atom     65.710518   -31.856478    34.600914  H        0.000000     0.000000    -0.006893     0.005450     0.007529
atom     67.285080   -31.171883    36.916332  H        0.000000     0.000000    -0.000148     0.000723    -0.003652
atom     -2.864679    -2.585027   103.358673  O        0.000000     0.000000     0.001160     0.033034     0.032237
atom     -3.498832    -2.272776   105.150291  H        0.000000     0.000000     0.010750    -0.012836    -0.044662
atom     -3.338340    -4.205406   102.811272  H        0.000000     0.000000    -0.010811    -0.021662     0.002006
atom    -10.945045    11.951904    41.162102  O        0.000000     0.000000    -0.012235     0.032351     0.026948
atom    -11.999250    11.150267    39.938854  H        0.000000     0.000000    -0.004906    -0.001771    -0.012537
atom    -12.056973    12.875770    42.414730  H        0.000000     0.000000     0.022949    -0.017680    -0.023342
atom     -5.775670    27.647137    23.567841  O        0.000000     0.000000     0.022427    -0.007851    -0.013886
atom     -4.606335    26.420630    22.743364  H        0.000000     0.000000    -0.018647     0.010475     0.012495
atom     -6.643484    26.803894    24.914083  H        0.000000     0.000000    -0.000599    -0.007911    -0.002636
atom     78.755379    23.901731    55.507256  O        0.000000     0.000000     0.002272     0.038683    -0.016403
atom     79.357399    25.387972    54.521210  H        0.000000     0.000000    -0.002471    -0.029172     0.012206
atom     77.225609    24.694967    56.120605  H        0.000000     0.000000     0.002016    -0.010111     0.003347
atom    -17.638784     4.644610    58.743851  O        0.000000     0.000000     0.002152     0.002082    -0.000232
atom    -17.130747     5.685313    57.325066  H        0.000000     0.000000     0.000852    -0.002319    -0.000649
atom    -16.216246     4.634450    59.873325  H        0.000000     0.000000    -0.002326     0.000614    -0.002874
atom     61.826199    32.346123    -2.620828  O        0.000000     0.000000    -0.014647    -0.001245    -0.046450
atom     60.968933    30.809166    -3.270352  H        0.000000     0.000000     0.013343     0.022561     0.017581
atom     61.474056    33.615929    -4.044748  H        0.000000     0.000000     0.002815    -0.026272     0.034003
atom    -52.989769    -6.957109     7.638453  O        0.000000     0.000000     0.000133    -0.017146     0.003926
atom    -54.082428    -8.499778     7.715689  H        0.000000     0.000000     0.011868     0.024918    -0.008946
atom    -52.277901    -6.784095     5.943467  H        0.000000     0.000000    -0.010164    -0.010744     0.007802
atom     -1.219181   -30.178261   -50.687267  O        0.000000     0.000000    -0.005507     0.012767    -0.046868
atom     -1.305261   -28.445774   -50.119442  H        0.000000     0.000000     0.001239    -0.000004     0.008398
atom     -1.134377   -29.902264   -52.573608  H        0.000000     0.000000     0.009132    -0.009339     0.032974
atom    -24.795706    58.839794   -14.243305  O        0.000000     0.000000    -0.016158     0.019227    -0.000587
atom    -25.547798    60.394588   -14.902729  H        0.000000     0.000000     0.008990    -0.016127    -0.006036
atom    -24.066866    59.490753   -12.712364  H        0.000000     0.000000     0.007206    -0.005412     0.006888
atom    110.509850    29.561310   -14.966812  O        0.000000     0.000000    -0.010667    -0.011165     0.014901
atom    110.134705    28.879965   -13.248630  H        0.000000     0.000000     0.000528     0.012519    -0.013519
atom    108.981270    30.468687   -15.376744  H        0.000000     0.000000     0.003491    -0.000580     0.000310
atom    108.117943    84.821167   -21.851406  O        0.000000     0.000000     0.001747     0.013324    -0.001669
atom    109.897202    85.368172   -21.763723  H        0.000000     0.000000    -0.014438    -0.014586     0.001066
atom    108.006126    83.046059   -21.523499  H        0.000000     0.000000     0.005056    -0.006879     0.002546
atom      4.352171   102.398872    48.901337  O        0.000000     0.000000     0.009586    -0.006027    -0.024222
atom      5.256002   101.783424    47.266304  H        0.000000     0.000000    -0.022522     0.005687     0.040528
atom      3.718186   100.964600    49.901009  H        0.000000     0.000000     0.013883     0.002930    -0.014803
atom     10.773450     9.678950   -10.295877  O        0.000000     0.000000     0.034887    -0.020343    -0.011478
atom     11.816666    10.309994   -11.713617  H        0.000000     0.000000    -0.016873     0.009139     0.007056
atom     11.919216     8.219160    -9.969133  H        0.000000     0.000000    -0.019636     0.007609     0.004967
atom    -17.187159   -50.055214   -11.257344  O        0.000000     0.000000    -0.004287    -0.000758     0.030577
atom    -17.450956   -51.243057    -9.854323  H        0.000000     0.000000    -0.001506     0.004002    -0.017979
atom    -17.382168   -48.547230   -10.236945  H        0.000000     0.000000    -0.000491     0.001562    -0.011526
atom     46.009769   -13.801373    49.219776  O        0.000000     0.000000     0.010089     0.025321    -0.001318
atom     45.715874   -11.957626    49.175861  H        0.000000     0.000000     0.003350    -0.020646     0.001224
atom     47.854755   -13.955087    49.034554  H        0.000000     0.000000    -0.011316    -0.002567    -0.003272
atom     27.356777    26.281870    -2.578778  O        0.000000     0.000000    -0.013902    -0.008917    -0.004866
atom     27.637211    26.695787    -0.807921  H        0.000000     0.000000    -0.006393    -0.007892    -0.007328
atom     25.718216    25.388443    -2.731460  H        0.000000     0.000000     0.019730     0.013751     0.013745
atom    -29.134333   -60.097031   -42.385883  O        0.000000     0.000000    -0.000273     0.042937     0.009786
atom    -28.307024   -58.378998   -42.498932  H        0.000000     0.000000    -0.009409    -0.031922    -0.007059
atom    -30.554977   -59.630184   -41.279057  H        0.000000     0.000000     0.001692    -0.009725    -0.006555
atom      1.731121     1.216086   -35.189762  O        0.000000     0.000000    -0.013684     0.010298     0.017324
atom      0.733687     1.217883   -33.575451  H        0.000000     0.000000     0.016786    -0.009519    -0.016735
atom      3.086938     2.408541   -34.876549  H        0.000000     0.000000     0.002711    -0.001482    -0.003395
atom     15.787515   -49.666168   -29.508591  O        0.000000     0.000000     0.011135     0.010163    -0.029364
atom     16.383623   -49.748863   -27.783833  H        0.000000     0.000000     0.003792     0.002472     0.001126
atom     16.976397   -48.705978   -30.622841  H        0.000000     0.000000    -0.017182    -0.018533     0.023301
atom    -11.852138    27.353113    49.820343  O        0.000000     0.000000    -0.008240    -0.037496    -0.001006
atom    -13.542944    27.400616    50.573750  H        0.000000     0.000000     0.013921    -0.000951    -0.007985
atom    -11.830223    25.721552    48.813740  H        0.000000     0.000000    -0.007568     0.033109     0.011080
atom      4.492030    26.467196   -19.555542  Cl       0.000000     0.000000    -0.005632    -0.004359     0.001449
atom     36.821564    11.903573   -15.345165  Cl       0.000000     0.000000    -0.003270     0.001469     0.001799
atom     -1.529068    69.972618    45.380146  Cl       0.000000     0.000000    -0.005714     0.001260    -0.000601
atom      0.981777    -6.042384    -9.869137  Cl       0.000000     0.000000    -0.008652    -0.000996     0.004372
atom     66.974884    62.234684     2.337662  Cl       0.000000     0.000000     0.003497     0.006293     0.004719
atom     14.668609   -18.554482    37.306248  Cl       0.000000     0.000000     0.001134    -0.001970     0.001256
energy  -1270.865904
charge      0.000000
end
begin
lattice        23.470398        0.000000        0.000000
lattice         0.000000       23.470398        0.000000
lattice         0.000000        0.000000       23.470398
atom     18.926971    12.398049    42.175823  Na       0.000000     0.000000    -0.000018     0.008118    -0.002734
atom     13.044093   -39.098667    38.854004  Na       0.000000     0.000000    -0.000927    -0.002213     0.001225
atom     41.541367    29.195438    11.382274  Na       0.000000     0.000000     0.001534     0.000638    -0.003535
atom     10.044490   -21.840063    13.578251  Na       0.000000     0.000000    -0.000039     0.001520    -0.002449
atom    -16.150427    28.413105     5.900197  Na       0.000000     0.000000    -0.005795    -0.004264     0.007075
atom    -12.500397    17.052784    39.719078  Na       0.000000     0.000000    -0.009355    -0.001152     0.004410
atom    -14.449370     6.872515    22.465450  O        0.000000     0.000000     0.010207    -0.014330    -0.000589
atom    -13.955344     5.536119    21.247444  H        0.000000     0.000000    -0.006854     0.010592     0.012356
atom    -13.639818     6.398845    24.048607  H        0.000000     0.000000    -0.003630     0.002273    -0.010255
atom     76.757927    41.225746   -56.149525  O        0.000000     0.000000    -0.003330     0.008817    -0.021624
atom     76.482323    41.870056   -57.874641  H        0.000000     0.000000     0.001339    -0.009152     0.018607
atom     75.342850    41.829758   -55.163914  H        0.000000     0.000000     0.006110    -0.002905     0.000209
atom    -36.786091    35.853069   -13.491459  O        0.000000     0.000000     0.007073    -0.014841    -0.000728
atom    -35.321667    36.919270   -13.471251  H        0.000000     0.000000     0.001624     0.010671    -0.002007
atom    -36.080662    34.167656   -13.833885  H        0.000000     0.000000    -0.005974     0.004683     0.005074
atom     44.677906   -94.123489    72.399910  O        0.000000     0.000000    -0.009188    -0.015947     0.002208
atom     45.498985   -92.644714    73.114594  H        0.000000     0.000000    -0.009483    -0.001417    -0.013931
atom     44.332977   -94.169708    70.567329  H        0.000000     0.000000     0.014673     0.013012     0.016479
atom      2.691728    14.021404    22.644981  O        0.000000     0.000000     0.012554    -0.022891     0.024360
atom      3.489716    13.189376    24.137486  H        0.000000     0.000000    -0.012658     0.010221    -0.025115
atom      2.946805    15.781433    22.928663  H        0.000000     0.000000    -0.005378     0.007303    -0.001517
atom    -41.928356     0.197261    37.658779  O        0.000000     0.000000     0.040969     0.030272     0.026123
atom    -43.325214     1.073851    38.354691  H        0.000000     0.000000    -0.014378    -0.002602    -0.000801
atom    -42.499466    -1.174354    36.755245  H        0.000000     0.000000    -0.020870    -0.026533    -0.020272
atom     29.509514    11.320368    26.728611  O        0.000000     0.000000    -0.008099     0.003672     0.028285
atom     29.046730     9.536328    26.536188  H        0.000000     0.000000    -0.003059     0.019132     0.000514
atom     29.020231    11.906468    28.501671  H        0.000000     0.000000     0.008751    -0.015426    -0.029180
atom     51.821194     6.405895    18.931395  O        0.000000     0.000000    -0.018340     0.028945    -0.004290
atom     52.556324     6.508746    20.580587  H        0.000000     0.000000     0.008405    -0.005420     0.005969
atom     51.007053     8.097880    18.770882  H        0.000000     0.000000     0.012365    -0.017295    -0.003618
atom     -4.811108    36.001785   -16.002560  O        0.000000     0.000000    -0.017275     0.030959    -0.016551
atom     -5.648492    37.601986   -16.635473  H        0.000000     0.000000     0.014195    -0.037617     0.019942
atom     -5.363897    35.700447   -14.286801  H        0.000000     0.000000    -0.001424     0.007046     0.000104
atom    -24.309900    37.581184    39.518497  O        0.000000     0.000000    -0.007473    -0.000571     0.005394
atom    -23.271797    38.629288    40.608536  H        0.000000     0.000000    -0.007997     0.001972    -0.013582
atom    -24.327993    38.220158    37.791859  H        0.000000     0.000000     0.007727     0.000181     0.009095
atom     -0.037678    -8.706356    10.698359  O        0.000000     0.000000    -0.024239     0.018984    -0.026882
atom      1.351784    -7.752153     9.996624  H        0.000000     0.000000     0.001914    -0.001400     0.004383
atom     -1.521166    -7.988517     9.754819  H        0.000000     0.000000     0.022930    -0.014176     0.024566
atom    -33.155941    -6.003217     9.882144  O        0.000000     0.000000     0.028617    -0.012272     0.012703
atom    -32.530205    -5.694881     8.209527  H        0.000000     0.000000    -0.007942     0.000742    -0.009789
atom    -31.489338    -6.424963    10.706379  H        0.000000     0.000000    -0.018387     0.005590    -0.003269
atom    -18.742113    29.327314   -84.127213  O        0.000000     0.000000    -0.015174    -0.010936    -0.025832
atom    -19.847925    27.803368   -84.076309  H        0.000000     0.000000     0.013640     0.018135     0.008243
atom    -17.767462    29.388777   -82.596207  H        0.000000     0.000000    -0.002138    -0.009548     0.008286
atom      3.480289   -11.540982    41.336952  O        0.000000     0.000000     0.010524    -0.024653    -0.015751
atom      3.223824   -10.639154    42.866749  H        0.000000     0.000000    -0.001065     0.007495     0.020982
atom      1.829952   -11.900846    40.685940  H        0.000000     0.000000    -0.001951     0.005151    -0.003806
atom    -25.345142   -16.290024    37.487907  O        0.000000     0.000000    -0.013966     0.029556     0.009270
atom    -26.297020   -14.730269    38.022751  H        0.000000     0.000000     0.015104    -0.030121    -0.011097
atom    -24.279522   -15.627082    36.139996  H        0.000000     0.000000     0.002023     0.001025    -0.001328
atom     68.817459     4.819769    -0.513801  O        0.000000     0.000000     0.008081     0.005820    -0.011066
atom     67.202591     4.032859    -0.788786  H        0.000000     0.000000    -0.005936    -0.002040     0.004024
atom     69.536781     4.849299    -2.206070  H        0.000000     0.000000     0.000216    -0.003595     0.002830
atom     64.515610    53.993679    30.166929  O        0.000000     0.000000    -0.000945     0.041843     0.000066
atom     62.835579    53.448009    29.719156  H        0.000000     0.000000     0.003759     0.001341     0.000076
atom     64.423386    55.927311    30.140196  H        0.000000     0.000000     0.006908    -0.044399    -0.001138
atom    -29.355671    22.357523    29.943460  O        0.000000     0.000000    -0.018749    -0.021392    -0.004805
atom    -29.991949    20.558867    29.880360  H        0.000000     0.000000     0.012303     0.028888    -0.005911
atom    -28.888596    22.706345    28.203787  H        0.000000     0.000000     0.009037    -0.002195     0.007278
atom      5.129074    13.075230    55.236366  O        0.000000     0.000000     0.024833    -0.001219     0.002765
atom      5.114830    14.891101    55.099686  H        0.000000     0.000000    -0.004629     0.003602    -0.001734
atom      6.856128    12.792201    55.921654  H        0.000000     0.000000    -0.017632     0.000141    -0.007039
atom     40.144070     3.541123    -1.787956  O        0.000000     0.000000     0.035559     0.035406    -0.068776
atom     40.506264     3.290216    -3.702995  H        0.000000     0.000000    -0.014715    -0.003517     0.051731
atom     39.266151     2.139449    -1.226339  H        0.000000     0.000000    -0.018695    -0.036968     0.007334
atom     34.682987   -34.852600   -48.285137  O        0.000000     0.000000    -0.012943    -0.015332     0.000001
atom     34.541157   -35.833897   -46.744934  H        0.000000     0.000000     0.001536     0.006841    -0.005142
atom     33.241749   -35.473461   -49.253105  H        0.000000     0.000000     0.009936     0.002439     0.004717
atom     93.284370    35.013836     3.726167  O        0.000000     0.000000     0.036837    -0.029314     0.010729
atom     93.266769    35.239101     5.553803  H        0.000000     0.000000    -0.008436    -0.003108    -0.008806
atom     94.664635    33.697975     3.530031  H        0.000000     0.000000    -0.030781     0.031259    -0.002055
atom    -11.338233    70.946686    52.803505  O        0.000000     0.000000     0.025098     0.016085     0.007996
atom    -11.737569    69.980392    51.339355  H        0.000000     0.000000    -0.007156    -0.017273    -0.009909
atom     -9.508066    70.681061    53.072701  H        0.000000     0.000000    -0.016668    -0.000103     0.001753
atom    -14.479244   -12.366741    14.978359  O        0.000000     0.000000     0.010562    -0.007757    -0.003256
atom    -15.895962   -11.842016    15.985825  H        0.000000     0.000000    -0.003893     0.010351    -0.004778
atom    -14.354280   -11.471470    13.362825  H        0.000000     0.000000    -0.007989    -0.004684     0.010635
atom    -49.009300    46.210911    43.612885  O        0.000000     0.000000     0.012836    -0.000932    -0.009407
atom    -48.301735    44.561119    43.317036  H        0.000000     0.000000    -0.009087    -0.011795     0.007767
atom    -47.686760    47.174095    42.785656  H        0.000000     0.000000    -0.011320     0.014220    -0.001634
atom    -57.938576    -2.922053   -33.132397  O        0.000000     0.000000    -0.003149     0.006213     0.020427
atom    -56.422825    -2.525377   -32.144650  H        0.000000     0.000000    -0.007699    -0.000398    -0.019600
atom    -57.502155    -3.612459   -34.763397  H        0.000000     0.000000     0.009490    -0.000305    -0.002443
atom    -30.749767    17.713593   -18.587286  O        0.000000     0.000000    -0.012978    -0.001517    -0.049200
atom    -31.970110    17.947014   -20.060469  H        0.000000     0.000000     0.017340    -0.003474     0.041519
atom    -29.115572    17.480782   -19.511921  H        0.000000     0.000000    -0.010125     0.000471     0.013967