begin
comment  i =        0, time =        0.000, E =     -1215.2096727157
lattice        23.470398        0.000000        0.000000
lattice         0.000000       23.470398        0.000000
lattice         0.000000        0.000000       23.470398
atom      0.532695    35.253124     0.456159  Na       0.000000     0.000000     0.000195    -0.000555    -0.003459
atom     27.866383    -4.623827   -39.898561  Na       0.000000     0.000000     0.006672     0.006228     0.004907
atom    -16.475727    43.707555    -9.436417  Na       0.000000     0.000000    -0.006001     0.001086     0.013047
atom     28.992241    -9.859553    10.285672  Na       0.000000     0.000000     0.010013    -0.025250    -0.013030
atom     43.251494    34.762009    23.487123  O        0.000000     0.000000    -0.005762    -0.005330    -0.048636
atom     42.197118    34.788804    24.897162  H        0.000000     0.000000    -0.017608     0.003302     0.026419
atom     42.044152    34.864383    22.029945  H        0.000000     0.000000     0.014679     0.000446     0.022592
atom    -19.257948    42.684418    19.373332  O        0.000000     0.000000     0.001554     0.006520     0.035684
atom    -19.578708    40.909042    18.927557  H        0.000000     0.000000    -0.006886     0.010206     0.010600
atom    -19.592839    42.966782    21.263094  H        0.000000     0.000000     0.003523    -0.020484    -0.045451
atom     25.717748    14.613430    53.532424  O        0.000000     0.000000    -0.018713     0.011466    -0.069871
atom     24.043348    15.289598    52.936614  H        0.000000     0.000000     0.016320    -0.009546     0.020647
atom     26.180944    14.079556    51.744294  H        0.000000     0.000000     0.002941     0.004170     0.042581
atom    -21.847513    33.020574    28.342097  O        0.000000     0.000000    -0.001051    -0.012279    -0.027863
atom    -21.662188    33.714492    29.991781  H        0.000000     0.000000     0.005463    -0.002824     0.014458
atom    -20.652885    31.641253    28.114174  H        0.000000     0.000000    -0.004823     0.008906     0.008634
atom    -32.189565    43.779572    -0.050344  O        0.000000     0.000000     0.004470    -0.015673     0.066432
atom    -33.020405    42.234050     0.666017  H        0.000000     0.000000     0.011294     0.022184    -0.021305
atom    -31.914812    44.687733     1.646688  H        0.000000     0.000000    -0.011829    -0.010158    -0.038436
atom      5.403560    24.541658    42.336906  O        0.000000     0.000000    -0.016101     0.007326    -0.016919
atom      6.263934    23.415317    43.378132  H        0.000000     0.000000     0.019649    -0.022133     0.020383
atom      4.379032    23.400195    41.283872  H        0.000000     0.000000    -0.002917     0.009112    -0.000542
atom     71.773102     7.993732    14.922009  O        0.000000     0.000000     0.021600     0.062466    -0.003873
atom     71.727501     9.820602    15.504832  H        0.000000     0.000000     0.004645    -0.039356    -0.009028
atom     70.406898     7.194454    15.734774  H        0.000000     0.000000    -0.021797    -0.015150     0.015517
atom     30.538517   -12.499605   -32.736935  O        0.000000     0.000000     0.000207    -0.012839    -0.036055
atom     31.915280   -13.758964   -32.523209  H        0.000000     0.000000    -0.010046     0.015231     0.006838
atom     30.390744   -11.507234   -31.286933  H        0.000000     0.000000     0.002937     0.010083     0.028752
atom    -12.744776   -15.734801    38.355308  O        0.000000     0.000000    -0.036103    -0.040187    -0.046580
atom    -11.640932   -15.838859    39.675915  H        0.000000     0.000000     0.043682     0.007560     0.044258
atom    -13.424102   -17.565447    38.369137  H        0.000000     0.000000    -0.002569     0.035802    -0.002161
atom    -29.248470   -65.289733    47.512195  O        0.000000     0.000000     0.004301     0.028842    -0.015452
atom    -29.690689   -64.908432    45.745317  H        0.000000     0.000000    -0.002436    -0.005094     0.008883
atom    -28.867061   -63.555218    48.099957  H        0.000000     0.000000    -0.004243    -0.026539     0.000765
atom     81.877747    27.368624    91.904198  O        0.000000     0.000000    -0.000757     0.000551    -0.007061
atom     81.427751    25.786987    91.007133  H        0.000000     0.000000     0.023512     0.025216     0.007685
atom     83.367560    28.206751    91.138114  H        0.000000     0.000000    -0.017744    -0.020284    -0.002632
atom    -15.236389    37.447331   -27.451925  O        0.000000     0.000000    -0.029003    -0.023549     0.036068
atom    -14.383924    36.058826   -26.580102  H        0.000000     0.000000     0.008469     0.009741    -0.010777
atom    -16.859292    37.274933   -26.482459  H        0.000000     0.000000     0.019284     0.012128    -0.023452
atom    -85.509888    -3.260503    57.032677  O        0.000000     0.000000    -0.001779     0.030597     0.004969
atom    -83.932747    -4.146441    57.234753  H        0.000000     0.000000     0.003101     0.006481    -0.004069
atom    -85.225136    -1.407011    57.335678  H        0.000000     0.000000     0.004025    -0.032975    -0.017810
atom     37.855939     2.150128    33.970820  O        0.000000     0.000000    -0.000640    -0.010632     0.003411
atom     38.990528     0.653583    33.797710  H        0.000000     0.000000    -0.004608     0.016990     0.005126
atom     38.819996     3.560395    34.664845  H        0.000000     0.000000     0.000834    -0.005624    -0.006021
atom     26.845661    -0.255342   -61.774998  O        0.000000     0.000000     0.013991     0.039641     0.008264
atom     26.179417     1.086353   -60.640918  H        0.000000     0.000000     0.005733    -0.022477    -0.010725
atom     28.334378     0.683019   -62.379064  H        0.000000     0.000000    -0.011681    -0.012925     0.005775
atom      4.114470    16.730664    59.324783  O        0.000000     0.000000    -0.021927    -0.002572     0.031350
atom      2.343085    17.387863    59.397839  H        0.000000     0.000000     0.019383    -0.002157     0.004959
atom      4.155961    15.551989    60.802261  H        0.000000     0.000000    -0.007036     0.019130    -0.014541
atom     16.376590    60.808847   -42.526646  O        0.000000     0.000000    -0.013810     0.000012    -0.029341
atom     15.065998    61.388173   -41.294333  H        0.000000     0.000000     0.015386     0.004404    -0.010698
atom     15.666056    61.286687   -44.216687  H        0.000000     0.000000     0.005375    -0.007422     0.033503
atom     11.622725    53.097377   -20.652732  O        0.000000     0.000000    -0.028065     0.004720     0.019219
atom     12.287763    51.894302   -21.843106  H        0.000000     0.000000    -0.010032    -0.003552    -0.002256
atom      9.765617    52.804504   -20.412859  H        0.000000     0.000000     0.039382    -0.002252    -0.009927
atom     -2.873905    17.029184   -52.096535  O        0.000000     0.000000    -0.017868     0.006264    -0.011019
atom     -3.061473    17.521320   -50.351360  H        0.000000     0.000000     0.009562     0.002006     0.000421
atom     -1.372068    16.044597   -52.284939  H        0.000000     0.000000     0.011818    -0.008860     0.005812
atom     44.586227     1.072095    23.882376  O        0.000000     0.000000    -0.004993     0.025198    -0.019846
atom     43.316710     2.426871    23.455791  H        0.000000     0.000000     0.015392    -0.016291     0.016726
atom     46.158543     1.759180    23.185547  H        0.000000     0.000000    -0.004395     0.000060     0.005083
atom     32.484267   -21.033812   -14.138572  O        0.000000     0.000000     0.001577    -0.008136     0.018436
atom     32.372730   -20.186960   -15.713657  H        0.000000     0.000000     0.002435     0.003071    -0.008664
atom     34.235172   -20.983697   -13.584727  H        0.000000     0.000000    -0.001894     0.002555    -0.008782
atom     44.696029    16.013014    27.058866  O        0.000000     0.000000    -0.008571     0.023441    -0.015176
atom     44.338860    17.362429    25.727442  H        0.000000     0.000000     0.009863    -0.026321     0.026730
atom     43.048762    15.403883    27.643845  H        0.000000     0.000000     0.007081     0.001665    -0.003895
atom    -27.728567    24.824863   -40.959493  O        0.000000     0.000000    -0.004417     0.000932     0.016915
atom    -27.213874    24.774094   -42.664649  H        0.000000     0.000000     0.002463    -0.002902    -0.017676
atom    -27.409294    26.573506   -40.476257  H        0.000000     0.000000     0.000650    -0.003622     0.003854
atom     85.459366    12.254825    20.727879  O        0.000000     0.000000     0.007396     0.000464    -0.013595
atom     85.223145    10.650564    19.813843  H        0.000000     0.000000     0.004746     0.013628     0.006085
atom     85.776305    13.579610    19.403048  H        0.000000     0.000000    -0.011030    -0.018821     0.010490
atom     27.778645    13.704141   -22.677515  O        0.000000     0.000000     0.042481     0.027960     0.050094
atom     29.104417    12.935582   -21.461625  H        0.000000     0.000000    -0.023683     0.005685    -0.035266
atom     27.953483    15.573535   -22.250860  H        0.000000     0.000000    -0.012125    -0.032273    -0.015896
atom     20.776258   -17.143000   -16.382104  O        0.000000     0.000000    -0.006305     0.013968    -0.038820
atom     22.229219   -17.043572   -17.552787  H        0.000000     0.000000    -0.013063     0.002686     0.022131
atom     19.452911   -16.217458   -17.370744  H        0.000000     0.000000     0.013037    -0.013415     0.020033
atom     -6.362411     6.437974    35.451905  O        0.000000     0.000000     0.011659     0.005750     0.032374
atom     -4.741706     6.688933    34.657864  H        0.000000     0.000000    -0.001159    -0.004263    -0.002614
atom     -5.989702     6.347497    37.303798  H        0.000000     0.000000    -0.009299     0.001761    -0.027977
atom    -11.190894    56.229931     9.102180  O        0.000000     0.000000    -0.014663    -0.012537     0.050281
atom     -9.710853    55.468590     8.382137  H        0.000000     0.000000     0.003244    -0.003478     0.005140
atom    -11.431171    55.548076    10.922334  H        0.000000     0.000000     0.010716     0.015668    -0.049538
atom      3.294841   -14.635080    21.201404  O        0.000000     0.000000    -0.014062    -0.054636     0.003414
atom      3.121395   -14.030173    19.477031  H        0.000000     0.000000    -0.001458    -0.005938     0.006068
atom      2.792048   -16.556609    21.279061  H        0.000000     0.000000     0.017177     0.054969    -0.007655
atom    -15.091589   -35.663391     3.254025  O        0.000000     0.000000    -0.003526    -0.007465     0.038189
atom    -14.921837   -37.071984     2.027738  H        0.000000     0.000000    -0.001254     0.013189    -0.000240
atom    -15.312887   -36.397862     5.052434  H        0.000000     0.000000    -0.002755     0.008191    -0.038373
atom    -10.899610    45.970736   -27.721704  O        0.000000     0.000000    -0.039578    -0.007448     0.004430
atom    -12.543726    45.104514   -27.163443  H        0.000000     0.000000     0.045587     0.005265    -0.001911
atom     -9.611041    45.474628   -26.510235  H        0.000000     0.000000    -0.012784    -0.003645    -0.001304
atom    -84.691742    -4.075293    -1.794255  O        0.000000     0.000000    -0.027751    -0.018007    -0.013268
atom    -85.987184    -5.046733    -2.733549  H        0.000000     0.000000     0.007352     0.023911     0.006404
atom    -83.691512    -5.504035    -1.336805  H        0.000000     0.000000     0.015543    -0.003988     0.009164
atom    -10.066331    -0.938691   -42.174634  O        0.000000     0.000000     0.013053     0.023503     0.002033
atom     -9.181289     0.433025   -41.259160  H        0.000000     0.000000    -0.012323    -0.022114    -0.010469
atom    -10.428508    -2.263726   -40.990422  H        0.000000     0.000000     0.002224    -0.002906     0.005171
atom     43.768143    19.391941   -47.232814  O        0.000000     0.000000    -0.020398    -0.056058     0.002670
atom     44.190410    21.045181   -47.558231  H        0.000000     0.000000     0.016472     0.053222    -0.004048
atom     41.942921    19.401865   -47.315365  H        0.000000     0.000000    -0.005809     0.001696     0.002242
atom     33.747761   -29.429916    -7.388635  O        0.000000     0.000000     0.003957    -0.026492     0.023325
atom     35.566547   -29.778646    -7.110624  H        0.000000     0.000000    -0.020062     0.007889    -0.006690
atom     32.939922   -30.685492    -6.214642  H        0.000000     0.000000     0.013089     0.018021    -0.019048
atom     39.607392    32.059672    75.364090  O        0.000000     0.000000    -0.025733    -0.024012    -0.002726
atom     39.595284    33.879044    75.368722  H        0.000000     0.000000    -0.006963     0.007526    -0.003251
atom     37.866455    31.372381    74.944618  H        0.000000     0.000000     0.034451     0.015627     0.000274
atom    -44.966685    34.253716    33.879879  O        0.000000     0.000000    -0.026902     0.020345    -0.013637
atom    -45.251457    33.177619    35.293948  H        0.000000     0.000000     0.002064    -0.012754     0.007489
atom    -46.647549    35.083378    33.632529  H        0.000000     0.000000     0.024162    -0.007414     0.002310
atom     -6.141064   -25.497209    33.828261  O        0.000000     0.000000    -0.013256    -0.018511    -0.024378
atom     -5.396754   -25.305013    32.137025  H        0.000000     0.000000    -0.004439     0.001291     0.016995
atom     -7.444922   -26.828703    33.553352  H        0.000000     0.000000     0.018934     0.013797     0.004152
atom     15.545371    39.046795   -30.158757  O        0.000000     0.000000     0.028760     0.012272     0.012664
atom     15.873435    38.168679   -31.716417  H        0.000000     0.000000    -0.009887    -0.012727    -0.011161
atom     17.307639    39.559982   -29.781891  H        0.000000     0.000000    -0.016154     0.004794     0.004424
atom    -19.605258   -19.462955    82.904228  O        0.000000     0.000000     0.003352     0.028404     0.004159
atom    -20.038497   -17.687939    83.402038  H        0.000000     0.000000     0.003306    -0.030916    -0.005084
atom    -17.755957   -19.501989    82.924172  H        0.000000     0.000000    -0.012161    -0.003445     0.001604
atom    -25.456177    -9.291802    33.327034  O        0.000000     0.000000    -0.039352    -0.043618    -0.022037
atom    -24.461913    -8.041667    33.977601  H        0.000000     0.000000     0.025636     0.041491     0.024965
atom    -27.100579    -9.250514    34.128860  H        0.000000     0.000000     0.006072     0.002702    -0.000794
atom     16.138350    36.397847    35.955471  O        0.000000     0.000000    -0.020843    -0.037849    -0.032029
atom     16.574348    34.531200    35.811610  H        0.000000     0.000000    -0.016567     0.042254     0.003913
atom     14.523534    36.637290    34.935352  H        0.000000     0.000000     0.039995    -0.007643     0.020120
atom      7.293938    32.482727    78.064873  O        0.000000     0.000000     0.036746    -0.006853    -0.015226
atom      9.235156    32.421734    78.173508  H        0.000000     0.000000    -0.036167    -0.007004     0.009632
atom      6.729793    30.982678    77.101769  H        0.000000     0.000000     0.006196     0.012714     0.015491
atom     26.005583    22.976209    38.280670  O        0.000000     0.000000    -0.003158     0.021608    -0.000003
atom     26.040774    24.851767    37.809994  H        0.000000     0.000000    -0.007533    -0.039082     0.000447
atom     24.392681    22.056647    38.012325  H        0.000000     0.000000     0.024892     0.019817    -0.002091
atom     69.942237    -4.477167    60.147747  O        0.000000     0.000000    -0.008821    -0.008170     0.031547
atom     68.929085    -3.912689    58.768253  H        0.000000     0.000000    -0.007158     0.004329    -0.012490
atom     68.848938    -4.795091    61.616848  H        0.000000     0.000000     0.008909     0.000676    -0.014613
atom     58.946510    14.638208   -69.526520  O        0.000000     0.000000     0.000381    -0.055372     0.025310
atom     59.832652    13.154716   -70.375665  H        0.000000     0.000000    -0.018051     0.036195     0.004053
atom     57.977710    13.699224   -68.121040  H        0.000000     0.000000     0.017813     0.024973    -0.036828
atom    -61.928062    50.262535    15.031110  O        0.000000     0.000000    -0.003874    -0.002667     0.018989
atom    -62.639718    49.557831    16.606297  H        0.000000     0.000000    -0.000225     0.012374    -0.014674
atom    -60.435486    49.242591    14.765951  H        0.000000     0.000000    -0.001453    -0.014313    -0.004059
atom     49.559825    50.390983   -24.175470  O        0.000000     0.000000    -0.026244     0.011347    -0.002541
atom     50.272346    51.002155   -22.542088  H        0.000000     0.000000     0.008437    -0.024703    -0.019356
atom     50.384384    49.108528   -25.219157  H        0.000000     0.000000     0.012381     0.016680     0.014357
atom      8.516844     8.944678    22.436486  O        0.000000     0.000000    -0.005473    -0.020677    -0.013028
atom      9.487049     7.333163    22.142153  H        0.000000     0.000000    -0.029145     0.026207    -0.000870
atom      6.698376     8.900011    21.828582  H        0.000000     0.000000     0.031390    -0.011939     0.008523
atom     77.733695    -1.384349    51.311378  O        0.000000     0.000000     0.033610     0.029306    -0.038227
atom     76.953125     0.321739    51.147792  H        0.000000     0.000000     0.011221    -0.018970     0.002339
atom     79.429603    -1.116711    50.369614  H        0.000000     0.000000    -0.046701    -0.011474     0.032537
atom     -0.654004    19.763950    55.186989  O        0.000000     0.000000    -0.004185    -0.022938     0.008508
atom     -0.791506    21.427317    54.540714  H        0.000000     0.000000     0.000125     0.011343    -0.009819
atom     -1.608879    18.682764    54.074472  H        0.000000     0.000000    -0.000329     0.004722    -0.002248
atom    -69.515732    45.614967    50.824177  O        0.000000     0.000000    -0.006710     0.034362    -0.013460
atom    -70.557526    46.777205    49.814902  H        0.000000     0.000000    -0.003736    -0.020686     0.002151
atom    -68.415259    46.898399    51.516727  H        0.000000     0.000000     0.006748    -0.007221     0.010781
atom     34.984058   -24.078730    37.791049  O        0.000000     0.000000    -0.010010    -0.003242    -0.002300
atom     35.498592   -24.542646    39.543526  H        0.000000     0.000000     0.015698     0.011364    -0.020508
atom     36.196111   -23.201649    36.710865  H        0.000000     0.000000     0.004959    -0.008186     0.015429
atom    -15.482379   -54.715221    53.521999  O        0.000000     0.000000    -0.003875    -0.031509    -0.019201
atom    -13.617302   -54.594239    53.788856  H        0.000000     0.000000    -0.018776     0.000130    -0.005790
atom    -15.838169   -56.130943    52.291139  H        0.000000     0.000000     0.018749     0.032500     0.025692
atom     21.546395    28.828314    41.161368  O        0.000000     0.000000     0.006085    -0.019098     0.029346
atom     22.325595    27.815778    42.506203  H        0.000000     0.000000    -0.000997     0.011047    -0.019533
atom     19.945360    29.273294    41.937275  H        0.000000     0.000000    -0.005422     0.004805    -0.010329
atom    121.017296    42.351068    48.393685  O        0.000000     0.000000    -0.022606     0.012453     0.006806
atom    119.734414    43.538940    49.205180  H        0.000000     0.000000     0.010685    -0.018236    -0.012576
atom    122.525550    43.197845    48.869312  H        0.000000     0.000000     0.022461     0.007817     0.001780
atom     28.534269     4.240585   -42.488804  Cl       0.000000     0.000000     0.002334     0.003107    -0.000370
atom     25.835196    -9.634684    -5.617759  Cl       0.000000     0.000000    -0.004367    -0.001691    -0.006112
atom     15.968067     6.830317    18.396650  Cl       0.000000     0.000000    -0.002244    -0.001297     0.002652
atom     13.547804    -6.464897     7.822160  Cl       0.000000     0.000000    -0.007512     0.005848     0.011103
energy  -1215.209673
charge      0.000000
end
begin
comment  i =        0, time =        0.000, E =     -1215.1950950805
lattice        23.470398        0.000000        0.000000
lattice         0.000000       23.470398        0.000000
lattice         0.000000        0.000000       23.470398
atom    -10.803848    17.386886    -3.605717  Na       0.000000     0.000000    -0.006035     0.000310     0.005800
atom     59.943428     7.911834    -9.499179  Na       0.000000     0.000000     0.004052     0.003591     0.002729
atom    -14.505570    26.815252     8.368046  Na       0.000000     0.000000    -0.000460    -0.000938    -0.002114
atom     21.449954    -4.304639    -4.293380  Na       0.000000     0.000000     0.009070     0.001527    -0.002761
atom     12.430018    33.779423    42.372261  O        0.000000     0.000000    -0.008630     0.016916     0.005166
atom     11.057702    34.225316    41.204582  H        0.000000     0.000000     0.006765     0.002837     0.008237
atom     12.618074    35.290996    43.446633  H        0.000000     0.000000    -0.000475    -0.021816    -0.012994
atom    -14.655259     1.896085    24.287633  O        0.000000     0.000000    -0.001753     0.019518     0.027996
atom    -15.738660     2.194380    25.773283  H        0.000000     0.000000     0.012622    -0.009246    -0.019967
atom    -12.992334     1.853428    25.081350  H        0.000000     0.000000    -0.011502    -0.002884    -0.010891
atom     39.015369    -8.540545    -6.079891  O        0.000000     0.000000    -0.015725    -0.028740    -0.022223
atom     39.776681   -10.209064    -5.726246  H        0.000000     0.000000    -0.003241     0.017921     0.001369
atom     38.044624    -9.011497    -7.626887  H        0.000000     0.000000     0.015793     0.009810     0.019515
atom      4.799475    12.674915   -15.774442  O        0.000000     0.000000     0.040082     0.002149     0.004601
atom      5.942952    12.635882   -17.210550  H        0.000000     0.000000    -0.010538     0.002183     0.009176
atom      3.152587    12.473536   -16.356496  H        0.000000     0.000000    -0.036049    -0.001396    -0.015899
atom     -6.742343    -3.285735   -18.621123  O        0.000000     0.000000     0.019647     0.001776     0.007002
atom     -7.210964    -1.772544   -19.491478  H        0.000000     0.000000    -0.004502     0.006212    -0.008016
atom     -5.144942    -2.810580   -17.856600  H        0.000000     0.000000    -0.012430    -0.005659     0.001803
atom    -20.517150    18.515414    41.689819  O        0.000000     0.000000     0.022828    -0.006302    -0.013780
atom    -19.118361    18.557131    42.899414  H        0.000000     0.000000    -0.011620     0.007893     0.002946
atom    -19.634158    18.771668    40.063866  H        0.000000     0.000000    -0.016034     0.000245     0.012041
atom     64.202018    -4.560901    21.565048  O        0.000000     0.000000    -0.004352    -0.004792    -0.018065
atom     63.794773    -2.893014    22.149661  H        0.000000     0.000000     0.005087     0.009370     0.009623
atom     63.530561    -4.509017    19.860162  H        0.000000     0.000000     0.012084    -0.000937     0.003479
atom     23.213216     9.484830    -3.326663  O        0.000000     0.000000     0.012298     0.034062     0.046674
atom     24.187576    10.779708    -4.282923  H        0.000000     0.000000    -0.007061    -0.015374     0.006811
atom     23.400023    10.155600    -1.448029  H        0.000000     0.000000    -0.005322    -0.016813    -0.047719
atom     22.285535   -23.314734    41.304165  O        0.000000     0.000000     0.016399     0.016439     0.008410
atom     21.063528   -22.142295    42.052315  H        0.000000     0.000000     0.008459    -0.001887    -0.001717
atom     23.935849   -22.362046    41.351482  H        0.000000     0.000000    -0.029157    -0.012208     0.002286
atom      4.870799    -3.805483    36.561864  O        0.000000     0.000000     0.058978    -0.010031     0.002600
atom      5.998743    -2.349149    37.019482  H        0.000000     0.000000    -0.019790    -0.011385    -0.008106
atom      6.213799    -5.053685    35.962616  H        0.000000     0.000000    -0.029211     0.021101     0.010722
atom     59.355007     3.003145    19.647345  O        0.000000     0.000000     0.012300    -0.007170    -0.015334
atom     59.630905     3.486526    17.879517  H        0.000000     0.000000    -0.000792    -0.009681     0.014027
atom     60.554611     1.619527    19.944183  H        0.000000     0.000000    -0.013701     0.018026    -0.003152
atom    -28.867148     7.567518   -34.195728  O        0.000000     0.000000     0.016119     0.004179     0.005817
atom    -27.682774     7.491249   -35.580826  H        0.000000     0.000000    -0.003852    -0.007804    -0.000890
atom    -27.685225     7.759512   -32.806553  H        0.000000     0.000000    -0.011242     0.003429    -0.001102
atom    -64.426132    10.308131    35.578632  O        0.000000     0.000000    -0.042742    -0.020815    -0.025268
atom    -65.456711    10.849294    34.006355  H        0.000000     0.000000     0.029875    -0.007251     0.038576
atom    -65.470733     8.984302    36.507812  H        0.000000     0.000000     0.013069     0.020763    -0.016110
atom     35.937196    53.221181     3.915446  O        0.000000     0.000000     0.025154    -0.015948    -0.021734
atom     35.249744    54.819114     3.501901  H        0.000000     0.000000    -0.009407     0.018474     0.002390
atom     37.046799    52.936849     2.436673  H        0.000000     0.000000    -0.012408    -0.003465     0.020191
atom     17.947338    -3.616068    -7.531883  O        0.000000     0.000000    -0.003744    -0.012963    -0.002589
atom     17.849329    -2.565545    -9.022240  H        0.000000     0.000000     0.003603    -0.003890     0.003066
atom     17.621717    -5.342666    -8.105918  H        0.000000     0.000000     0.002744     0.015029     0.003485
atom    -11.973125    18.812233     4.832141  O        0.000000     0.000000    -0.017502    -0.025652    -0.007355
atom    -12.392472    17.011473     4.970532  H        0.000000     0.000000    -0.001337     0.012829    -0.006360
atom    -10.713904    18.940135     6.085538  H        0.000000     0.000000     0.019384     0.009606     0.017247
atom     40.890495     9.750427   -46.162370  O        0.000000     0.000000    -0.018200    -0.007817    -0.018636
atom     40.919576    11.538142   -46.430146  H        0.000000     0.000000     0.001546     0.000502     0.007799
atom     42.231403     9.250051   -45.107591  H        0.000000     0.000000     0.012394     0.002742     0.010889
atom     31.317120    46.014393    28.791606  O        0.000000     0.000000     0.023735    -0.029777     0.005467
atom     29.876151    45.274040    28.007451  H        0.000000     0.000000    -0.009138     0.000846    -0.002425
atom     32.540001    44.516002    28.689047  H        0.000000     0.000000    -0.015593     0.032402     0.003232
atom     18.883897    27.540982    -4.407221  O        0.000000     0.000000    -0.005962    -0.003811     0.007412
atom     17.535942    27.515442    -3.142594  H        0.000000     0.000000     0.010991     0.000382    -0.008820
atom     19.549370    29.221468    -4.518050  H        0.000000     0.000000    -0.002553     0.003425    -0.001037
atom     20.504279     0.804859   -10.490234  O        0.000000     0.000000     0.004436    -0.015491     0.015789
atom     21.459785    -0.677626   -11.142759  H        0.000000     0.000000    -0.008612     0.018006     0.015599
atom     20.659705     0.722646    -8.583782  H        0.000000     0.000000     0.010285    -0.002823    -0.038260
atom     32.598998    39.854294    12.277955  O        0.000000     0.000000     0.030499    -0.004064    -0.019233
atom     32.572215    38.650132    10.865855  H        0.000000     0.000000    -0.003342     0.012968     0.011997
atom     34.380855    40.549634    12.191825  H        0.000000     0.000000    -0.027160    -0.002446     0.000923
atom     14.395125   -19.772760    37.651994  O        0.000000     0.000000     0.019832    -0.007949     0.003788
atom     16.257766   -19.910064    37.667094  H        0.000000     0.000000    -0.024529     0.003093    -0.003960
atom     13.819887   -20.860073    36.300514  H        0.000000     0.000000     0.003132     0.004677     0.002032
atom    -24.267821   -17.959116    10.114060  O        0.000000     0.000000    -0.004424    -0.041272     0.002363
atom    -24.342420   -19.697205    10.906488  H        0.000000     0.000000    -0.011335     0.033196    -0.014013
atom    -23.245636   -17.127041    11.336431  H        0.000000     0.000000     0.008068     0.014516     0.013556
atom     74.478912    50.213024    33.835556  O        0.000000     0.000000    -0.005938    -0.018937    -0.009497
atom     74.355133    48.390850    34.177490  H        0.000000     0.000000     0.000255     0.022274    -0.004418
atom     73.038125    50.621827    32.746265  H        0.000000     0.000000     0.011244    -0.007455     0.010477
atom     46.360893    27.007902   -22.944053  O        0.000000     0.000000     0.018846    -0.037758     0.006894