begin
lattice        37.308128        0.000000        0.000000
lattice         0.000000       18.654064        0.000000
lattice         0.000000        0.000000       18.654064
atom     32.958874   -30.463264   -30.379911  Na       0.000000     0.000000    -0.004858     0.002419     0.005010
atom     37.226948    20.227459    17.763979  Cl       0.000000     0.000000    -0.009126     0.001063     0.002896
atom     15.226064    19.813309   -23.441223  O        0.000000     0.000000    -0.041609    -0.032180    -0.004970
atom     14.313527    19.865067   -21.832542  H        0.000000     0.000000     0.017746     0.007141    -0.006545
atom     14.029329    18.671474   -24.424284  H        0.000000     0.000000     0.032070     0.023453     0.009714
atom     49.962082    17.282803   -32.670639  O        0.000000     0.000000    -0.021617    -0.018467     0.017995
atom     50.060387    17.296999   -30.824450  H        0.000000     0.000000     0.012130     0.014571    -0.002929
atom     49.269176    15.588268   -32.833275  H        0.000000     0.000000     0.002788     0.004422    -0.010825
atom     -2.812740    -7.535138     0.353706  O        0.000000     0.000000     0.011673    -0.001037     0.004428
atom     -1.077839    -7.678021    -0.218477  H        0.000000     0.000000     0.001596    -0.001087     0.006682
atom     -3.528269    -6.913050    -1.194753  H        0.000000     0.000000    -0.011723    -0.001291    -0.009263
atom     25.462301    -9.037823    20.574556  O        0.000000     0.000000     0.040295     0.009882    -0.029041
atom     26.730350    -8.153627    19.430506  H        0.000000     0.000000    -0.021532    -0.019080     0.021029
atom     24.097855    -7.872645    20.403444  H        0.000000     0.000000    -0.016032     0.010485     0.003455
atom     17.934437   -30.272501    29.171764  O        0.000000     0.000000    -0.000657     0.018663     0.001707
atom     16.252232   -30.738035    28.706142  H        0.000000     0.000000    -0.003989    -0.005429    -0.000060
atom     19.058487   -31.541407    28.548208  H        0.000000     0.000000     0.005170    -0.011457    -0.003318
atom     38.178978   -20.049318     8.730958  O        0.000000     0.000000     0.004474     0.000959    -0.004813
atom     39.094673   -20.248766     7.152306  H        0.000000     0.000000    -0.011892    -0.001297     0.011579
atom     36.608791   -21.033602     8.637909  H        0.000000     0.000000     0.008896     0.000901    -0.004118
atom     17.290031   -25.709259    25.345760  O        0.000000     0.000000     0.003719    -0.033679     0.023100
atom     18.512516   -25.848011    24.020622  H        0.000000     0.000000     0.002655     0.000802    -0.003478
atom     17.467491   -27.361269    26.288691  H        0.000000     0.000000    -0.002747     0.033178    -0.017051
atom     -9.533678    -1.170758   -16.215172  O        0.000000     0.000000    -0.015031     0.004203    -0.000633
atom     -7.891369    -1.782845   -15.825641  H        0.000000     0.000000     0.014183    -0.006286    -0.001470
atom    -10.601371    -1.707935   -14.807664  H        0.000000     0.000000    -0.000130     0.004501    -0.004559
atom     16.593470    15.097586   -16.631874  O        0.000000     0.000000     0.010959    -0.016419    -0.011328
atom     14.968194    15.874792   -16.577040  H        0.000000     0.000000     0.004907     0.008491     0.006266
atom     17.829098    16.120577   -15.687266  H        0.000000     0.000000    -0.009533     0.003885    -0.001486
atom     -3.661512   -19.735632   -24.547321  O        0.000000     0.000000    -0.045965    -0.018653    -0.036001
atom     -5.527032   -19.553740   -24.352278  H        0.000000     0.000000     0.020337     0.006879    -0.000108
atom     -2.904702   -19.210686   -23.075085  H        0.000000     0.000000     0.020300     0.021709     0.045579
atom     46.055946    20.936317    -5.980149  O        0.000000     0.000000    -0.061048     0.008378    -0.029708
atom     47.054710    22.241547    -6.720984  H        0.000000     0.000000     0.019812     0.010334    -0.004116
atom     44.353683    21.412212    -6.779481  H        0.000000     0.000000     0.037653    -0.019234     0.029140
atom     33.785828   -41.684879    26.478853  O        0.000000     0.000000    -0.004864     0.012887    -0.006515
atom     33.210262   -40.759796    24.998316  H        0.000000     0.000000     0.003127    -0.010955     0.004280
atom     34.434338   -43.294918    25.890371  H        0.000000     0.000000     0.001089     0.001017     0.002773
atom     22.053011   -15.590997   -17.642187  O        0.000000     0.000000    -0.004365     0.018075     0.002631
atom     21.817165   -15.318241   -19.434145  H        0.000000     0.000000    -0.002329    -0.012057     0.003172
atom     21.540283   -13.918039   -16.971912  H        0.000000     0.000000     0.005645    -0.014364     0.005983
atom    -35.272671    10.988225    -2.367788  O        0.000000     0.000000    -0.003197    -0.011206    -0.002717
atom    -34.398678     9.435354    -1.625099  H        0.000000     0.000000    -0.001864     0.018195    -0.006874
atom    -34.061523    12.184532    -2.988299  H        0.000000     0.000000     0.006041    -0.001669     0.008054
atom     23.722252   -30.499643    52.996265  O        0.000000     0.000000    -0.012724     0.006295    -0.000860
atom     25.130224   -31.604759    53.119186  H        0.000000     0.000000     0.011570    -0.009892     0.005307
atom     23.563831   -29.768667    54.660492  H        0.000000     0.000000     0.008458     0.001873    -0.002493
atom     13.893277    44.075035    -3.537473  O        0.000000     0.000000    -0.009612     0.000722    -0.009778
atom     15.646564    44.431076    -3.296092  H        0.000000     0.000000     0.009493    -0.005035     0.009063
atom     13.340980    45.711613    -4.193357  H        0.000000     0.000000    -0.008873    -0.006795     0.006234
atom      7.592586    56.372524    24.396999  O        0.000000     0.000000     0.048566    -0.004522     0.015471
atom      9.287042    56.113670    23.635679  H        0.000000     0.000000    -0.011404     0.003915     0.013654
atom      6.601739    56.053719    22.958534  H        0.000000     0.000000    -0.034578    -0.001154    -0.027388
atom      7.964920    -5.357221    -2.879108  O        0.000000     0.000000     0.006311    -0.004495     0.003896
atom      8.470552    -3.622586    -2.494392  H        0.000000     0.000000    -0.000088    -0.004103     0.000777
atom      8.344402    -6.311261    -1.355818  H        0.000000     0.000000    -0.007435     0.005386    -0.002515
atom     59.611561     9.832692    -7.027113  O        0.000000     0.000000    -0.010313    -0.015416     0.007558
atom     60.821869     8.680619    -6.278982  H        0.000000     0.000000    -0.002741     0.004316     0.003072
atom     57.997478     8.924096    -6.852560  H        0.000000     0.000000     0.011879     0.012310    -0.008105
atom    -19.058815    -9.377155    -1.800651  O        0.000000     0.000000    -0.012596     0.014126     0.004747
atom    -17.923666   -10.162122    -2.913716  H        0.000000     0.000000     0.018551    -0.008318    -0.013895
atom    -19.547373    -7.732699    -2.619184  H        0.000000     0.000000     0.004742    -0.015447     0.010226
atom     49.885960    23.719402    28.829714  O        0.000000     0.000000    -0.002259     0.006967     0.003868
atom     50.471870    24.074219    30.541759  H        0.000000     0.000000     0.004354    -0.006630     0.000588
atom     50.855263    22.321396    28.196993  H        0.000000     0.000000     0.004851    -0.003624     0.001496
atom     26.891817    23.438129   -51.474762  O        0.000000     0.000000     0.002219    -0.016901    -0.008366
atom     26.743219    25.096668   -52.180965  H        0.000000     0.000000    -0.007073     0.006563    -0.002470
atom     26.446785    22.309275   -52.869762  H        0.000000     0.000000     0.002442     0.010763     0.014421
atom      6.055895   -49.570526    -9.538621  O        0.000000     0.000000    -0.042903    -0.064522     0.012159
atom      6.523050   -47.995373    -8.973946  H        0.000000     0.000000     0.012586     0.042346     0.016048
atom      4.672905   -50.160301    -8.347872  H        0.000000     0.000000     0.028982     0.020220    -0.026398
atom     12.022350    17.399466    10.192991  O        0.000000     0.000000     0.001615     0.037845    -0.009615
atom     10.555774    18.522335    10.358083  H        0.000000     0.000000     0.009114    -0.006347     0.004328
atom     11.368346    15.799036    10.473250  H        0.000000     0.000000    -0.014833    -0.034595     0.007149
atom      9.024402    42.954815   -18.894867  O        0.000000     0.000000     0.017476    -0.002140     0.040324
atom     10.295346    43.122871   -20.197912  H        0.000000     0.000000     0.001560    -0.000562     0.011734
atom      9.870037    42.829659   -17.128496  H        0.000000     0.000000    -0.023957     0.003869    -0.048954
atom     28.183825    37.806023    49.916073  O        0.000000     0.000000     0.026925    -0.027742    -0.044819
atom     27.365341    38.394997    51.346066  H        0.000000     0.000000    -0.013620     0.022377     0.027282
atom     28.306160    39.129471    48.625710  H        0.000000     0.000000    -0.007253     0.003013     0.017037
atom     59.214153    13.519016    38.021423  O        0.000000     0.000000     0.077861     0.018497     0.012162
atom     60.181091    15.039893    37.218700  H        0.000000     0.000000    -0.026963    -0.038969     0.008980
atom     57.546379    13.555928    37.614067  H        0.000000     0.000000    -0.051537     0.004788    -0.014702
atom     24.151615    54.123722    53.876564  O        0.000000     0.000000     0.009291     0.004293     0.007021
atom     22.700592    55.195911    53.502399  H        0.000000     0.000000    -0.001423     0.009089    -0.000818
atom     25.291557    55.051632    54.959770  H        0.000000     0.000000    -0.003874    -0.001351    -0.002027
atom     22.117931     3.797545    28.475483  O        0.000000     0.000000    -0.034140    -0.018856    -0.004623
atom     23.780529     4.395954    28.399914  H        0.000000     0.000000     0.031509     0.012185    -0.000589
atom     21.876696     2.716867    27.019812  H        0.000000     0.000000     0.002111     0.005746     0.007413
atom    -27.481462    42.475819    42.490700  O        0.000000     0.000000    -0.015667    -0.052455    -0.002490
atom    -28.510014    41.083916    43.313187  H        0.000000     0.000000     0.019104     0.025329    -0.023550
atom    -27.735022    43.796673    43.621605  H        0.000000     0.000000    -0.001109     0.031554     0.021966
atom      7.456306    29.963999     2.742266  O        0.000000     0.000000     0.006217     0.003424     0.001742
atom      6.554075    31.533796     2.966162  H        0.000000     0.000000     0.008017    -0.002486     0.001860
atom      9.163636    30.123386     3.469297  H        0.000000     0.000000    -0.018134     0.001377    -0.009183
atom     52.214798   -12.236279    41.213367  O        0.000000     0.000000    -0.034480     0.009461    -0.000396
atom     51.178425   -10.761868    40.628910  H        0.000000     0.000000     0.022983    -0.018725     0.010047
atom     50.961224   -13.132186    42.270523  H        0.000000     0.000000     0.015400     0.006749    -0.010915
atom     41.157669   -30.389744    18.091843  O        0.000000     0.000000     0.053011     0.022938     0.018123
atom     40.520588   -31.896715    17.484882  H        0.000000     0.000000    -0.018828    -0.036258    -0.014495
atom     43.042961   -30.702791    18.286810  H        0.000000     0.000000    -0.026995     0.006099    -0.003097
atom     12.741709    -7.256447   -70.628090  O        0.000000     0.000000    -0.026724    -0.002455    -0.003988
atom     12.446782    -7.572609   -68.854622  H        0.000000     0.000000    -0.005344    -0.009471     0.007283
atom     14.305242    -6.419832   -70.594170  H        0.000000     0.000000     0.028833     0.010337    -0.006203
atom     10.434002    -8.486463    27.000700  O        0.000000     0.000000     0.012383     0.007160     0.026171
atom     11.303828    -8.506034    28.673574  H        0.000000     0.000000    -0.006274    -0.009115    -0.019682
atom      9.509971    -6.935865    27.215994  H        0.000000     0.000000    -0.013490     0.003744    -0.007728
atom     -8.674103    14.021813    29.537483  O        0.000000     0.000000     0.002250    -0.011237     0.001068
atom     -9.716316    15.505939    29.740585  H        0.000000     0.000000     0.010664     0.000566     0.001027
atom     -6.989102    14.480983    28.999033  H        0.000000     0.000000    -0.006160     0.005024     0.000114
atom    -13.000503    34.763683     6.246461  O        0.000000     0.000000    -0.010004    -0.011849     0.045570
atom    -12.926764    34.980598     8.165228  H        0.000000     0.000000    -0.001531    -0.007201    -0.046631
atom    -13.458293    32.922440     6.087418  H        0.000000     0.000000     0.007097     0.015238     0.001719
atom     46.727501   -18.975632    35.667580  O        0.000000     0.000000    -0.036692    -0.006479    -0.023141
atom     46.119507   -17.839540    34.278305  H        0.000000     0.000000     0.019933    -0.009252     0.017104
atom     48.228775   -18.338955    36.376328  H        0.000000     0.000000     0.017186     0.016787     0.007894
atom     16.464638    50.971577    15.614397  O        0.000000     0.000000    -0.009715    -0.015250    -0.004110
atom     16.843225    51.603188    17.275511  H        0.000000     0.000000    -0.004864     0.012566     0.009123
atom     16.930969    52.147243    14.342264  H        0.000000     0.000000     0.007532     0.011049    -0.010099
atom     68.669319   -10.710410   -25.416729  O        0.000000     0.000000     0.010268    -0.017427     0.025697
atom     68.487770    -8.975009   -24.889378  H        0.000000     0.000000     0.003718    -0.001915    -0.001569
atom     69.279602   -11.626913   -23.871197  H        0.000000     0.000000    -0.010889     0.016125    -0.023300
atom     16.550402     1.447115    45.204422  O        0.000000     0.000000    -0.000754     0.013606    -0.003166
atom     17.841274     0.901584    44.004356  H        0.000000     0.000000    -0.006959     0.001993    -0.001032
atom     16.626482     0.156644    46.461308  H        0.000000     0.000000     0.000772    -0.009684     0.007472
atom     20.085047    63.328033    40.413738  O        0.000000     0.000000    -0.024251     0.016453    -0.036299
atom     19.692671    64.228149    38.729683  H        0.000000     0.000000     0.003746    -0.017729     0.041522
atom     18.418953    62.602642    40.892494  H        0.000000     0.000000     0.014148     0.012308    -0.005014
atom     -9.145809     3.322436    -1.313376  O        0.000000     0.000000    -0.000443    -0.021479     0.022127
atom     -8.857642     1.900996    -0.087588  H        0.000000     0.000000    -0.002221     0.032081    -0.020779
atom     -7.625890     4.410720    -1.354758  H        0.000000     0.000000    -0.008822    -0.020882     0.000240
atom     -4.785895   -31.737406    -1.993065  O        0.000000     0.000000     0.005859     0.017500     0.005955
atom     -3.271711   -32.700459    -1.693382  H        0.000000     0.000000     0.005098    -0.010264    -0.000387
atom     -4.618159   -30.342455    -0.821835  H        0.000000     0.000000     0.001593     0.003999    -0.003319
atom     33.207069   -34.830807     8.603148  O        0.000000     0.000000    -0.002616     0.006957    -0.004438
atom     34.394238   -35.270439     7.289333  H        0.000000     0.000000     0.002178    -0.003078     0.013773
atom     33.732277   -35.574142    10.192648  H        0.000000     0.000000     0.002541    -0.004741    -0.011813
atom     64.854179     4.926472     9.944617  O        0.000000     0.000000    -0.036728    -0.030449     0.036437
atom     64.821014     4.476406     8.242604  H        0.000000     0.000000     0.011316     0.008786    -0.038638
atom     66.039520     6.132589    10.488932  H        0.000000     0.000000     0.022112     0.022687    -0.005110
atom     36.488575    28.403378   -29.477409  O        0.000000     0.000000    -0.011728     0.005502    -0.007438
atom     38.065727    28.189358   -30.388689  H        0.000000     0.000000     0.000606    -0.000423    -0.000544
atom     36.920277    28.123781   -27.727121  H        0.000000     0.000000     0.006869    -0.002620     0.000719
atom     60.678429    29.709591     6.745698  O        0.000000     0.000000     0.016211     0.027547    -0.004868
atom     60.293232    29.616739     8.512981  H        0.000000     0.000000    -0.006642    -0.013994     0.004828
atom     59.787418    28.487432     5.804138  H        0.000000     0.000000    -0.008498    -0.015833    -0.004565
atom     -3.808059    -6.229582    -4.481071  O        0.000000     0.000000    -0.009272     0.043711    -0.001390
atom     -3.794050    -4.321959    -4.718149  H        0.000000     0.000000    -0.002577    -0.035312    -0.002309
atom     -2.309508    -6.696190    -5.338641  H        0.000000     0.000000     0.012470    -0.007390    -0.005653
atom     -4.333951    -2.571121    20.828915  O        0.000000     0.000000     0.020779    -0.022831    -0.014378
atom     -3.200490    -3.824191    19.921797  H        0.000000     0.000000    -0.026021     0.019335     0.023302
atom     -3.580844    -0.952593    20.553680  H        0.000000     0.000000     0.006071     0.003552    -0.004209
atom    -17.562222    36.886677    23.125059  O        0.000000     0.000000     0.040708     0.004708    -0.006063
atom    -16.877455    38.108047    21.836594  H        0.000000     0.000000    -0.006247    -0.015691     0.012737
atom    -15.993091    36.052570    23.863632  H        0.000000     0.000000    -0.021737     0.012881    -0.014629
atom     40.488880    26.819990     4.922483  O        0.000000     0.000000     0.047669     0.021427    -0.013124
atom     41.564548    25.801693     6.030180  H        0.000000     0.000000    -0.009595     0.003051     0.001082
atom     41.858559    27.814800     3.997398  H        0.000000     0.000000    -0.033751    -0.020025     0.014623
atom      5.017343    36.604557    20.130966  O        0.000000     0.000000     0.040935    -0.002521    -0.005741
atom      3.704833    37.431995    19.286638  H        0.000000     0.000000    -0.039286     0.011369    -0.005947
atom      6.407323    37.170761    19.023592  H        0.000000     0.000000     0.001360    -0.014176     0.012097
atom     11.947113    29.549261   -24.079851  O        0.000000     0.000000     0.009037    -0.002292    -0.015666
atom     13.227974    30.781971   -23.750313  H        0.000000     0.000000     0.004872     0.006741     0.005918
atom     10.398853    30.201200   -23.408783  H        0.000000     0.000000    -0.013359     0.010933     0.011145
atom    -23.155508     1.958539    19.093327  O        0.000000     0.000000     0.003628     0.007508     0.008298
atom    -22.882467     1.333694    20.784040  H        0.000000     0.000000    -0.003417    -0.001946    -0.004109
atom    -22.690004     3.724104    19.261679  H        0.000000     0.000000    -0.004603    -0.004646    -0.003171
atom     20.510754     1.162187    -3.745988  O        0.000000     0.000000    -0.023990     0.005113    -0.013313
atom     18.673046     1.032003    -4.173463  H        0.000000     0.000000     0.018480    -0.000016     0.007585
atom     21.196213     2.126584    -5.134030  H        0.000000     0.000000     0.000526    -0.001620    -0.002811
atom      1.546035    26.775208    -6.716607  O        0.000000     0.000000     0.009162     0.024531    -0.016904
atom      0.775699    25.235159    -6.331473  H        0.000000     0.000000    -0.008510    -0.024479     0.013961
atom      1.669956    27.828966    -5.229790  H        0.000000     0.000000    -0.001688    -0.002054     0.012008
atom      2.895100    21.255152    13.031661  O        0.000000     0.000000    -0.024598    -0.012858     0.014031
atom      2.041135    20.131596    11.900406  H        0.000000     0.000000     0.006101    -0.004113    -0.022572
atom      1.811651    20.742596    14.508284  H        0.000000     0.000000     0.021891     0.016959    -0.003162
atom     17.759441    15.452213    28.967413  O        0.000000     0.000000     0.037224    -0.007725    -0.005661
atom     17.605474    14.300954    27.506161  H        0.000000     0.000000    -0.001169     0.006288     0.013755
atom     19.656561    15.459332    29.283346  H        0.000000     0.000000    -0.035397    -0.000177    -0.000105
atom    -14.433640    14.862104    -6.814148  O        0.000000     0.000000    -0.005195    -0.029431    -0.022969
atom    -13.888139    15.458629    -5.249263  H        0.000000     0.000000     0.012730     0.023060     0.028962
atom    -14.409826    13.023094    -6.469370  H        0.000000     0.000000    -0.006211     0.011517    -0.012973
atom     -7.997373   -27.413469    26.041237  O        0.000000     0.000000    -0.028980     0.005757    -0.047648
atom     -8.496800   -26.110325    27.199707  H        0.000000     0.000000     0.000647     0.003903     0.007538
atom     -9.211423   -27.072151    24.593699  H        0.000000     0.000000     0.025420    -0.011375     0.032518
atom      7.026812    -4.088878   -10.173455  O        0.000000     0.000000     0.027576    -0.011946    -0.017957
atom      7.454532    -2.646372   -11.245586  H        0.000000     0.000000    -0.011730     0.002286     0.009818
atom      5.772293    -3.623515    -9.011889  H        0.000000     0.000000    -0.016031     0.010631     0.010870
atom     -8.790479    31.111107    17.197767  O        0.000000     0.000000     0.007906     0.017464    -0.015905
atom     -8.765345    30.872261    15.363588  H        0.000000     0.000000    -0.000856     0.005412     0.016620
atom     -8.394125    32.908348    17.452129  H        0.000000     0.000000    -0.007164    -0.023115    -0.000350
atom     36.365726    23.815180     4.507033  O        0.000000     0.000000    -0.002114    -0.007537    -0.012984
atom     36.819695    22.717548     3.118688  H        0.000000     0.000000    -0.005471    -0.001951     0.001987
atom     37.599846    25.145679     4.292959  H        0.000000     0.000000     0.005615     0.002624     0.004981
energy  -1166.299074
charge      0.000000
end
begin
lattice        38.078506        0.000000        0.000000
lattice         0.000000       19.039253        0.000000
lattice         0.000000        0.000000       19.039253
atom     36.058060   -56.136703   -34.233261  Na       0.000000     0.000000     0.016008     0.009363    -0.000960
atom     38.018467    10.242069   -16.001110  Cl       0.000000     0.000000    -0.005851    -0.000941    -0.007628
atom     26.426950     3.785378   -62.233505  O        0.000000     0.000000     0.022263     0.017060    -0.011828
atom     26.039692     5.566179   -62.100471  H        0.000000     0.000000     0.000789     0.003839     0.001739
atom     24.979174     2.980599   -61.647175  H        0.000000     0.000000    -0.024242    -0.014768     0.014247
atom     76.868347    -0.724975   -45.212273  O        0.000000     0.000000    -0.016114    -0.006270     0.000066
atom     77.112587    -2.453198   -45.772499  H        0.000000     0.000000    -0.005478     0.013321     0.001936
atom     75.017700    -0.444054   -45.125671  H        0.000000     0.000000     0.014382    -0.007369     0.000252
atom      7.447602     6.437098    50.568607  O        0.000000     0.000000    -0.000971     0.006018     0.007629
atom      6.282206     5.225317    49.871532  H        0.000000     0.000000    -0.001156     0.002887    -0.002638
atom      6.508301     7.993503    50.785122  H        0.000000     0.000000    -0.000090    -0.007463    -0.008456
atom     37.010536    11.456455    49.645111  O        0.000000     0.000000    -0.002403     0.017170     0.005310
atom     37.788273    11.768765    51.271252  H        0.000000     0.000000    -0.003204    -0.010901    -0.003445
atom     37.126331     9.715158    49.118870  H        0.000000     0.000000     0.001574    -0.003141     0.002560
atom     17.149694   -36.407646     0.037165  O        0.000000     0.000000     0.000987     0.010857     0.004441
atom     17.661194   -36.023911     1.754086  H        0.000000     0.000000     0.001762    -0.000419    -0.002153
atom     16.892778   -34.730484    -0.689767  H        0.000000     0.000000     0.002907    -0.005522     0.003456
atom     51.449516     2.769463     6.991665  O        0.000000     0.000000     0.016830     0.012327    -0.045637
atom     52.552853     2.331710     8.380075  H        0.000000     0.000000     0.001617    -0.008591     0.002427
atom     52.568218     2.953755     5.465432  H        0.000000     0.000000    -0.019073    -0.004192     0.038196
atom     18.435463   -23.644768     0.296736  O        0.000000     0.000000    -0.002653    -0.003005    -0.006751
atom     19.471535   -22.381884    -0.564392  H        0.000000     0.000000    -0.001093     0.003468     0.002044
atom     16.835190   -23.701599    -0.586205  H        0.000000     0.000000     0.003186     0.002757     0.007455
atom     -9.054863   -33.109390   -30.047398  O        0.000000     0.000000     0.000880     0.003498     0.022864
atom     -8.846519   -33.191628   -28.193731  H        0.000000     0.000000    -0.004352    -0.000266    -0.021934
atom    -10.517260   -34.125534   -30.480358  H        0.000000     0.000000    -0.000034     0.005184     0.000514
atom     -0.877566    14.775066   -21.290558  O        0.000000     0.000000     0.004805    -0.027934     0.019418
atom     -2.564736    14.256591   -20.710201  H        0.000000     0.000000     0.016098     0.007941    -0.003326
atom      0.260986    13.627578   -20.313765  H        0.000000     0.000000    -0.019911     0.024480    -0.016264
atom     12.114558    19.037563   -56.752113  O        0.000000     0.000000     0.010460    -0.011581    -0.011475
atom     11.095078    19.876154   -55.493164  H        0.000000     0.000000    -0.004847     0.006526     0.006821
atom     13.910812    19.309849   -56.459763  H        0.000000     0.000000    -0.007521     0.006584    -0.001773
atom     27.879799    29.777401    26.331364  O        0.000000     0.000000    -0.020018     0.028984    -0.017284
atom     28.544809    28.098227    26.324759  H        0.000000     0.000000     0.002132    -0.009295    -0.008142
atom     27.243332    30.255590    24.579975  H        0.000000     0.000000     0.017643    -0.025963     0.023747
atom     46.224770   -68.718735    56.354771  O        0.000000     0.000000     0.006351    -0.032911     0.020649
atom     46.611652   -69.239311    58.125843  H        0.000000     0.000000    -0.004768     0.013404    -0.009818
atom     45.979622   -70.414291    55.665478  H        0.000000     0.000000    -0.008262     0.012309    -0.005133
atom     11.282342   -28.542625     9.858083  O        0.000000     0.000000     0.046432    -0.010307    -0.039764
atom     10.191264   -29.505457    10.796310  H        0.000000     0.000000    -0.048763    -0.021051     0.039444
atom     12.044006   -30.011286     8.991020  H        0.000000     0.000000    -0.002256     0.027756    -0.001202
atom      5.646424   -36.427254    18.648111  O        0.000000     0.000000     0.006512    -0.005490    -0.023803
atom      5.242278   -36.926514    20.324188  H        0.000000     0.000000    -0.003765     0.001501     0.014349
atom      6.446994   -37.877975    17.881159  H        0.000000     0.000000    -0.003256     0.006611     0.002473
atom     54.126011   -23.651335   106.049644  O        0.000000     0.000000    -0.030415     0.008740    -0.007131
atom     53.358631   -23.972166   107.679337  H        0.000000     0.000000     0.002943    -0.009140     0.010719
atom     52.507793   -23.631544   105.071739  H        0.000000     0.000000     0.020131    -0.000876    -0.005053
atom    -24.888109    51.153793    14.867182  O        0.000000     0.000000     0.024088    -0.014738     0.010055
atom    -26.344181    52.184803    14.947706  H        0.000000     0.000000    -0.023617     0.004048     0.001559
atom    -25.285852    49.487713    15.537501  H        0.000000     0.000000     0.000070     0.012743    -0.008602
atom     -6.397468    43.597198    -5.621072  O        0.000000     0.000000     0.037975     0.007788    -0.060148
atom     -7.555450    43.356522    -4.382996  H        0.000000     0.000000    -0.041918    -0.003688     0.051191
atom     -4.939009    44.536503    -5.021085  H        0.000000     0.000000    -0.002151    -0.008867     0.005527
atom     21.044672    14.667871     9.784202  O        0.000000     0.000000     0.009525     0.004422    -0.015300
atom     20.852617    14.501348     7.914807  H        0.000000     0.000000    -0.009772     0.001372     0.024989
atom     19.401878    14.802041    10.595936  H        0.000000     0.000000     0.001795    -0.003123    -0.015085
atom     49.281219    -4.712794    21.478685  O        0.000000     0.000000     0.003040     0.018264     0.054798
atom     49.636257    -3.022250    20.863684  H        0.000000     0.000000     0.001198     0.001132    -0.017807
atom     49.369545    -4.314969    23.382767  H        0.000000     0.000000    -0.005479    -0.019399    -0.035145
atom     -8.486410   -12.291134   -19.052210  O        0.000000     0.000000    -0.010926    -0.019773    -0.008480
atom     -6.714380   -12.477618   -18.762203  H        0.000000     0.000000     0.007145    -0.000130     0.008424