begin
lattice        36.271702        0.000000        0.000000
lattice         0.000000       18.135851        0.000000
lattice         0.000000        0.000000       18.135851
atom     21.322464   -11.376055     8.127711  Na       0.000000     0.000000    -0.003513    -0.002495    -0.014650
atom     19.043249    20.802038    16.042513  Cl       0.000000     0.000000     0.002351     0.000409    -0.003496
atom    -10.623690    42.808830    -3.328177  O        0.000000     0.000000    -0.000058    -0.006883    -0.017773
atom    -10.901930    40.888866    -3.381417  H        0.000000     0.000000     0.014228     0.011379     0.003259
atom     -9.309619    43.158302    -4.627991  H        0.000000     0.000000    -0.008199    -0.006363     0.009320
atom     13.128536     4.392221    -3.652747  O        0.000000     0.000000     0.010360     0.001430     0.007247
atom     11.488754     4.365908    -2.803483  H        0.000000     0.000000     0.001267     0.000053    -0.000092
atom     14.343790     3.929341    -2.281059  H        0.000000     0.000000    -0.009969     0.004593    -0.011555
atom     16.714945     5.573886     6.876315  O        0.000000     0.000000    -0.038815     0.036344     0.024149
atom     16.142494     3.879567     7.025561  H        0.000000     0.000000     0.001525    -0.031976    -0.000604
atom     15.191579     6.383760     7.909424  H        0.000000     0.000000     0.032957    -0.000169    -0.023691
atom     21.083370   -10.840672    -5.797209  O        0.000000     0.000000     0.037423    -0.001748     0.010394
atom     22.963524   -10.855834    -5.145858  H        0.000000     0.000000    -0.034831    -0.004041    -0.005251
atom     20.413525   -12.460773    -5.161184  H        0.000000     0.000000    -0.001622     0.006114     0.004913
atom      8.770570     9.751095    15.894119  O        0.000000     0.000000    -0.031320     0.000392    -0.020458
atom      7.431129    10.543550    14.695968  H        0.000000     0.000000     0.026981     0.001092     0.016722
atom     10.403174    10.481728    15.334191  H        0.000000     0.000000    -0.000144    -0.007754    -0.000169
atom     35.111385    10.534202   -12.282473  O        0.000000     0.000000    -0.000744    -0.002760    -0.001907
atom     36.247192    11.097083   -13.668876  H        0.000000     0.000000    -0.005153    -0.003228     0.002967
atom     34.592930     8.779518   -12.669724  H        0.000000     0.000000     0.003997     0.005016    -0.002420
atom     27.280258    42.750755    20.705580  O        0.000000     0.000000     0.005744    -0.002964    -0.028829
atom     26.915588    43.475018    22.321398  H        0.000000     0.000000    -0.005720     0.011494     0.032251
atom     28.023685    44.208687    19.755405  H        0.000000     0.000000    -0.000567    -0.006213     0.001665
atom     38.317307    -5.028833     2.093867  O        0.000000     0.000000    -0.002011     0.007132     0.009789
atom     39.636467    -5.012312     3.481624  H        0.000000     0.000000    -0.009308    -0.010249    -0.007139
atom     38.527267    -6.602295     1.073799  H        0.000000     0.000000     0.006942    -0.003355     0.006196
atom    -14.904379    51.764992    -0.897628  O        0.000000     0.000000    -0.040551    -0.019919    -0.014533
atom    -14.812412    53.453312    -1.516535  H        0.000000     0.000000    -0.006590     0.027766    -0.010351
atom    -13.439568    51.574947     0.065592  H        0.000000     0.000000     0.039523    -0.009832     0.027519
atom     65.961670     2.156825     3.581341  O        0.000000     0.000000    -0.013063     0.014235     0.009359
atom     67.068047     2.119323     2.124216  H        0.000000     0.000000     0.009019    -0.006105    -0.015504
atom     65.067863     3.797037     3.099063  H        0.000000     0.000000     0.000775    -0.005984     0.010483
atom     35.659035    42.493855     1.793747  O        0.000000     0.000000    -0.000052    -0.035296    -0.002021
atom     36.014072    40.520878     1.826360  H        0.000000     0.000000    -0.009552     0.050313    -0.005854
atom     34.390553    42.995983     0.414498  H        0.000000     0.000000     0.015753    -0.017890     0.015173
atom     23.147888    -8.089752    -0.540319  O        0.000000     0.000000     0.003388    -0.018121    -0.010225
atom     24.078995    -7.401471     0.897811  H        0.000000     0.000000    -0.000693     0.002332     0.004913
atom     24.205652    -9.499388    -1.301540  H        0.000000     0.000000    -0.009429     0.017847     0.007928
atom     33.291698     0.179734    10.281107  O        0.000000     0.000000    -0.009938    -0.007897     0.003403
atom     34.274281     1.702383    10.428625  H        0.000000     0.000000     0.006827     0.015026     0.002747
atom     33.786942    -0.412102     8.614079  H        0.000000     0.000000    -0.001630    -0.008387    -0.007689
atom     -2.611448    17.195293     4.847760  O        0.000000     0.000000    -0.020118    -0.017556    -0.003017
atom     -4.544340    17.314541     4.880494  H        0.000000     0.000000     0.034905     0.001093    -0.006086
atom     -2.184567    15.483886     4.154510  H        0.000000     0.000000    -0.007848     0.017069     0.008141
atom      2.374738     6.131047    12.740580  O        0.000000     0.000000    -0.022232    -0.008221     0.005280
atom      4.152791     6.547091    12.461310  H        0.000000     0.000000     0.002075    -0.012253     0.002114
atom      1.855683     4.375350    13.515859  H        0.000000     0.000000     0.016639     0.025119    -0.005230
atom     -5.401579    38.875916    -1.317640  O        0.000000     0.000000     0.018483     0.018974    -0.020712
atom     -4.362362    37.407833    -1.861193  H        0.000000     0.000000    -0.004629    -0.005341     0.000417
atom     -4.648710    40.363262    -2.284014  H        0.000000     0.000000    -0.010634    -0.015981     0.020646
atom     15.059119    10.984117     3.056005  O        0.000000     0.000000     0.001654     0.017034     0.012098
atom     13.688722     9.976102     3.754731  H        0.000000     0.000000    -0.017292     0.000619     0.003575
atom     16.070711     9.830338     2.088836  H        0.000000     0.000000     0.015267    -0.015363    -0.019678
atom     37.397980   -16.756912   -16.246677  O        0.000000     0.000000     0.034427     0.000362    -0.015277
atom     36.225143   -17.478411   -15.084908  H        0.000000     0.000000    -0.023941    -0.014865     0.017352
atom     39.017250   -17.684978   -15.923927  H        0.000000     0.000000    -0.011605     0.011012    -0.003098
atom     26.231604    19.677958    14.957439  O        0.000000     0.000000    -0.002261    -0.010378     0.015179
atom     28.061871    19.726614    15.498580  H        0.000000     0.000000    -0.002584     0.008583    -0.008911
atom     25.550055    19.252224    16.683365  H        0.000000     0.000000    -0.000415     0.000115    -0.006774
atom     20.873018    12.531101    30.801167  O        0.000000     0.000000    -0.005947     0.024322     0.022653
atom     20.919569    13.076921    32.634354  H        0.000000     0.000000     0.004007    -0.005224    -0.018854
atom     20.828262    10.693717    30.888891  H        0.000000     0.000000    -0.002711    -0.011450    -0.002093
atom     39.904621    17.318575    -9.315102  O        0.000000     0.000000    -0.000646     0.005334    -0.018943
atom     41.245277    17.903473    -8.143959  H        0.000000     0.000000     0.005555    -0.000168     0.001838
atom     40.818687    17.208408   -11.018881  H        0.000000     0.000000    -0.008085    -0.005615     0.014014
atom      9.426112    -4.485878   -27.965492  O        0.000000     0.000000     0.024428     0.009895    -0.004708
atom      8.797381    -4.209804   -26.240047  H        0.000000     0.000000     0.003468    -0.002229     0.004920
atom     11.314924    -4.216379   -27.997446  H        0.000000     0.000000    -0.031984    -0.006727     0.003781
atom    -17.949532    -2.417243    25.295601  O        0.000000     0.000000    -0.026102    -0.006408     0.000414
atom    -19.647392    -3.197402    25.859390  H        0.000000     0.000000     0.034586     0.020323    -0.012185
atom    -18.187359    -1.882432    23.475895  H        0.000000     0.000000    -0.009806    -0.009972     0.014860
atom     25.628082    -9.545965    25.299940  O        0.000000     0.000000    -0.004219     0.028539    -0.018967
atom     26.257406    -7.812024    24.816042  H        0.000000     0.000000    -0.012079    -0.017344     0.002956
atom     26.820770   -10.118487    26.518755  H        0.000000     0.000000     0.019632    -0.011153     0.017975
atom     19.243467    10.516837   -29.576084  O        0.000000     0.000000    -0.002750    -0.002814    -0.013327
atom     17.778479    10.366793   -30.754311  H        0.000000     0.000000     0.006983    -0.000142     0.007833
atom     19.334785    12.345853   -29.320175  H        0.000000     0.000000    -0.001283     0.005459     0.007040
atom     30.362185    30.744164    23.588348  O        0.000000     0.000000     0.003983    -0.028297    -0.010226
atom     32.122623    30.120110    23.794540  H        0.000000     0.000000     0.002550     0.005829     0.009947
atom     30.003944    32.393124    24.283257  H        0.000000     0.000000    -0.007602     0.009208     0.011059
atom     38.157017    30.889875    -7.669821  O        0.000000     0.000000     0.014008     0.034812     0.029654
atom     38.704060    32.636044    -8.368286  H        0.000000     0.000000    -0.009174    -0.027119     0.000559
atom     37.564373    29.799982    -8.960555  H        0.000000     0.000000    -0.006514    -0.009816    -0.028130
atom      7.729445    24.686556   -43.353004  O        0.000000     0.000000    -0.010020    -0.003220     0.024812
atom      8.029857    25.446228   -41.589684  H        0.000000     0.000000    -0.004045    -0.020000    -0.025379
atom      7.111300    22.861773   -43.208996  H        0.000000     0.000000     0.022117     0.019974     0.009073
atom      8.190241   -13.294380     1.043458  O        0.000000     0.000000    -0.012047     0.007016    -0.003195
atom      7.404764   -11.858183     0.095653  H        0.000000     0.000000     0.004468    -0.009164     0.009321
atom      6.855681   -13.820922     2.258078  H        0.000000     0.000000     0.007382     0.008312    -0.005566
atom     -6.324782    25.047512    10.987258  O        0.000000     0.000000    -0.042643     0.016174     0.030620
atom     -5.419526    25.113317    12.564491  H        0.000000     0.000000     0.013934    -0.000067     0.014044
atom     -5.175309    24.495060     9.728233  H        0.000000     0.000000     0.025668    -0.015593    -0.037400
atom     13.174283    16.044825    16.461037  O        0.000000     0.000000    -0.001958     0.015713     0.050327
atom     14.752123    16.538839    17.422417  H        0.000000     0.000000    -0.017480    -0.005702    -0.013713
atom     13.564969    15.379371    14.844150  H        0.000000     0.000000     0.018913    -0.011463    -0.030546
atom      4.845447    11.905314   -11.965687  O        0.000000     0.000000    -0.002676     0.002661    -0.008690
atom      4.929433    10.166759   -12.658227  H        0.000000     0.000000     0.012318     0.005315     0.014110
atom      6.452940    12.509517   -11.185315  H        0.000000     0.000000    -0.003537    -0.015807    -0.010537
atom      6.586952   -23.155981    12.729031  O        0.000000     0.000000    -0.022458    -0.001439     0.014136
atom      5.618818   -22.180527    14.089832  H        0.000000     0.000000     0.015950     0.001961     0.000086
atom      5.033367   -23.865891    11.948496  H        0.000000     0.000000     0.002448    -0.001632    -0.016038
atom     26.370502    21.077642     8.479183  O        0.000000     0.000000     0.006571     0.003679    -0.012803
atom     24.744881    20.521212     9.112860  H        0.000000     0.000000    -0.012022    -0.003975     0.008229
atom     27.464067    21.305853     9.922445  H        0.000000     0.000000     0.004200     0.003550     0.008755
atom     51.412956    14.123147    12.146394  O        0.000000     0.000000     0.008567     0.042919    -0.017272
atom     53.216137    14.064881    12.465992  H        0.000000     0.000000     0.017517     0.005911    -0.002335
atom     51.014271    12.412648    12.450547  H        0.000000     0.000000    -0.022343    -0.044038     0.006084
atom      9.121196    -5.268912    38.039425  O        0.000000     0.000000    -0.001238     0.019503    -0.037840
atom      8.230682    -6.332618    36.687065  H        0.000000     0.000000     0.016787     0.011293     0.011328
atom     10.582609    -4.466857    37.050297  H        0.000000     0.000000    -0.022822    -0.013220     0.019266
atom    -12.150553    12.716629    22.141989  O        0.000000     0.000000    -0.004626    -0.007409    -0.002741
atom    -13.845244    12.382943    22.830561  H        0.000000     0.000000     0.004161    -0.000347     0.000078
atom    -11.706251    14.457888    22.533552  H        0.000000     0.000000     0.002830     0.005902     0.003388
atom     25.434219    -2.922513    11.732130  O        0.000000     0.000000    -0.008179     0.001241     0.007313
atom     25.220716    -1.511881    12.916091  H        0.000000     0.000000     0.014402     0.010150     0.000614
atom     23.743389    -3.679421    11.862556  H        0.000000     0.000000    -0.005167    -0.016594    -0.004228
atom     -3.912489     5.251386   -11.181252  O        0.000000     0.000000    -0.012856     0.006776    -0.005725
atom     -2.191771     4.651464   -11.056524  H        0.000000     0.000000     0.016402    -0.004513     0.006017
atom     -4.777512     3.965997   -12.229186  H        0.000000     0.000000    -0.003366     0.003052    -0.000027
atom     12.548779     8.732234     8.970573  O        0.000000     0.000000    -0.008942    -0.009313     0.011903
atom     11.254850     9.125655     7.660914  H        0.000000     0.000000     0.008419     0.001665    -0.009141
atom     11.378884     7.970943    10.211726  H        0.000000     0.000000     0.007901    -0.001039    -0.002152
atom     39.707211    26.722843    36.265987  O        0.000000     0.000000     0.021916     0.002702     0.014501
atom     38.606285    25.443926    37.084755  H        0.000000     0.000000    -0.010730     0.003277    -0.003035
atom     39.231209    26.765564    34.517250  H        0.000000     0.000000    -0.009792    -0.003233    -0.014550
atom      4.762699     6.101511   -12.672866  O        0.000000     0.000000    -0.021461    -0.006470    -0.008613
atom      2.993711     5.462049   -12.388089  H        0.000000     0.000000     0.016235     0.006296    -0.000339
atom      5.631062     5.538410   -11.166708  H        0.000000     0.000000     0.006006     0.002560     0.007243
atom     35.944843    -6.675418   -21.293434  O        0.000000     0.000000    -0.021275    -0.015767     0.045978
atom     36.853188    -6.520922   -22.801435  H        0.000000     0.000000     0.021869     0.009460    -0.046653
atom     35.412167    -4.972621   -20.861908  H        0.000000     0.000000    -0.005431     0.005694    -0.000320
atom     -6.309227    -7.288515     0.993896  O        0.000000     0.000000    -0.003756    -0.023247    -0.028729
atom     -6.692946    -6.191511    -0.460999  H        0.000000     0.000000    -0.002849     0.002026     0.011862
atom     -6.262289    -6.525050     2.704790  H        0.000000     0.000000    -0.002823     0.018530     0.004481
atom      0.737562     3.818860    26.693558  O        0.000000     0.000000     0.003534    -0.004979    -0.007823
atom      1.379456     4.956257    28.092318  H        0.000000     0.000000     0.001571    -0.010766    -0.002960
atom      1.643250     2.147388    26.636650  H        0.000000     0.000000     0.000670     0.012984     0.007448
atom     25.087469   -17.942377     1.794930  O        0.000000     0.000000     0.002456     0.001714     0.005732
atom     23.652847   -16.805599     2.112582  H        0.000000     0.000000     0.003088     0.002227     0.007972
atom     26.496109   -17.399017     2.963777  H        0.000000     0.000000    -0.009056    -0.004110    -0.012924
atom     12.700681    19.233009    10.487188  O        0.000000     0.000000     0.018105    -0.031460    -0.011827
atom     13.276636    20.451986    11.765860  H        0.000000     0.000000    -0.002662     0.002133     0.008026
atom     13.612522    17.589130    10.858704  H        0.000000     0.000000    -0.011263     0.024531    -0.002223
atom     32.549740     7.617548    16.096670  O        0.000000     0.000000     0.016732     0.000103    -0.015204
atom     31.517803     8.676934    17.239285  H        0.000000     0.000000    -0.000082     0.007278     0.003068
atom     33.997566     8.744538    15.492188  H        0.000000     0.000000    -0.017112    -0.000501     0.004053
atom     57.311432    20.161753     9.826533  O        0.000000     0.000000    -0.021405    -0.026066     0.021406
atom     56.672016    18.758318     8.675110  H        0.000000     0.000000     0.004375     0.016879     0.021613
atom     56.532600    19.775181    11.614388  H        0.000000     0.000000     0.017225     0.007620    -0.042214
atom     14.350499   -14.473340     1.736376  O        0.000000     0.000000    -0.001936    -0.017544    -0.016203
atom     14.938663   -13.113621     2.771048  H        0.000000     0.000000     0.011391     0.015204     0.012886
atom     15.868646   -15.439463     1.221036  H        0.000000     0.000000    -0.002666     0.004343     0.004470
atom      4.262899    33.805305    -1.638363  O        0.000000     0.000000     0.025541     0.025182    -0.014314
atom      3.585202    32.913223    -0.205778  H        0.000000     0.000000    -0.018704    -0.015916     0.018081
atom      5.778115    34.691418    -0.913347  H        0.000000     0.000000    -0.006087    -0.003396    -0.014351
atom      7.641676     1.119873    11.328779  O        0.000000     0.000000    -0.027378     0.009728    -0.012387
atom      8.250503     0.423204    12.907862  H        0.000000     0.000000     0.004975    -0.001823     0.021458
atom      8.991299     0.856918    10.129985  H        0.000000     0.000000     0.015467    -0.000254    -0.003204
atom     16.719042    16.129395     2.157798  O        0.000000     0.000000     0.019401     0.001208    -0.014731
atom     15.886379    14.480967     1.953743  H        0.000000     0.000000    -0.001415    -0.006407     0.010905
atom     18.371906    15.896327     1.238554  H        0.000000     0.000000    -0.009258     0.002445     0.003012
atom     29.199736    11.984050    -4.408782  O        0.000000     0.000000     0.006194     0.032586     0.028660
atom     28.160881    13.034582    -5.485415  H        0.000000     0.000000    -0.016101     0.009476    -0.003951
atom     29.281605    10.415065    -5.215044  H        0.000000     0.000000     0.008005    -0.035542    -0.022277
atom      0.206319   -16.241144    32.594627  O        0.000000     0.000000     0.015873     0.001879     0.011082
atom      1.248973   -17.592709    31.842638  H        0.000000     0.000000    -0.006758     0.000464     0.007769
atom      0.550494   -16.366602    34.459473  H        0.000000     0.000000    -0.001963    -0.004792    -0.012547
atom     18.076765     8.491237    17.668015  O        0.000000     0.000000     0.030592     0.022631     0.009938
atom     18.249834     6.700350    17.245451  H        0.000000     0.000000     0.002715    -0.004712    -0.004149
atom     19.957531     9.186831    17.806601  H        0.000000     0.000000    -0.030956    -0.014540    -0.005443
atom      6.225290    -1.138556    22.397217  O        0.000000     0.000000     0.003236     0.060665     0.020687
atom      6.855171    -2.673302    21.724897  H        0.000000     0.000000     0.020507    -0.028493    -0.010722
atom      7.785552    -0.032629    22.814783  H        0.000000     0.000000    -0.018727    -0.024722    -0.013346
atom     10.129683    -8.867955    40.905048  O        0.000000     0.000000     0.009072    -0.047837     0.005700
atom      9.835840   -10.524234    39.992878  H        0.000000     0.000000    -0.002644     0.025546     0.008330
atom      9.278631    -7.474119    40.027882  H        0.000000     0.000000     0.004393     0.004821    -0.009899
atom     22.309000    23.076693    21.801727  O        0.000000     0.000000     0.021833    -0.006564     0.005061
atom     21.184654    23.514044    20.442102  H        0.000000     0.000000    -0.008285     0.003826    -0.009696
atom     24.049326    23.488512    21.140223  H        0.000000     0.000000    -0.016914     0.001682     0.003972
atom      8.787301   -17.939886    -1.736712  O        0.000000     0.000000    -0.010940     0.001650    -0.005565
atom     10.480492   -18.687340    -1.522642  H        0.000000     0.000000     0.008030    -0.003222     0.000541
atom      8.810239   -16.326900    -0.834540  H        0.000000     0.000000    -0.003195     0.006259     0.005766
atom     11.295184     1.036446    22.984718  O        0.000000     0.000000    -0.012395    -0.008627     0.013943
atom     12.371753     2.029975    21.868874  H        0.000000     0.000000     0.004907     0.005379    -0.011980
atom     12.073784     1.202540    24.650513  H        0.000000     0.000000    -0.001851    -0.001247     0.004450
atom     13.626475    -8.083543    14.554602  O        0.000000     0.000000    -0.007108    -0.004240    -0.017855
atom     14.922612    -8.082753    15.816905  H        0.000000     0.000000     0.018297    -0.000561     0.019578
atom     13.818944    -9.771456    13.804881  H        0.000000     0.000000    -0.004100    -0.002104     0.001765
atom     32.524204   -19.963593    15.005426  O        0.000000     0.000000     0.007717     0.000018     0.018502
atom     32.714970   -19.202139    13.361384  H        0.000000     0.000000     0.013452     0.010595    -0.023959
atom     31.356352   -21.280273    14.577852  H        0.000000     0.000000    -0.014726    -0.021680     0.002866
atom     -8.968300   -20.213226     7.154683  O        0.000000     0.000000     0.008646    -0.026940    -0.035364
atom     -8.685308   -18.551441     7.705307  H        0.000000     0.000000     0.003918     0.048112     0.005296
atom     -9.668326   -20.924742     8.664569  H        0.000000     0.000000    -0.011387    -0.011990     0.021842
energy  -1170.446494
charge      0.000000
end
begin
lattice        35.756935        0.000000        0.000000
lattice         0.000000       17.878468        0.000000
lattice         0.000000        0.000000       17.878468
atom     21.055138   -11.428720    11.123941  Na       0.000000     0.000000    -0.003348    -0.005541     0.005125
atom     22.507080    14.810030     5.832945  Cl       0.000000     0.000000     0.002226    -0.001926    -0.000682
atom    -28.453197    41.753799    13.150472  O        0.000000     0.000000    -0.014005     0.010447    -0.000570
atom    -27.561110    43.358650    13.455094  H        0.000000     0.000000     0.002070     0.007766     0.009325
atom    -30.264439    42.280548    12.923642  H        0.000000     0.000000     0.012367    -0.004038     0.000250
atom     12.067440    14.430535    13.465749  O        0.000000     0.000000    -0.007063     0.027900     0.018428
atom     13.769740    14.041807    12.771427  H        0.000000     0.000000    -0.001758    -0.008453     0.005210
atom     12.159351    16.061102    14.496646  H        0.000000     0.000000     0.002830    -0.019927    -0.016112
atom     24.281565    24.701719    20.863184  O        0.000000     0.000000     0.006415     0.045385     0.002853
atom     24.094656    22.910149    20.830923  H        0.000000     0.000000     0.004361    -0.030132     0.001302
atom     26.109659    25.221535    20.687178  H        0.000000     0.000000    -0.013147    -0.007493    -0.001539
atom     34.210247     3.180325   -15.567415  O        0.000000     0.000000     0.000949     0.009815    -0.005914
atom     34.093655     4.885346   -16.522404  H        0.000000     0.000000     0.011510    -0.000632     0.010220
atom     32.558418     2.580381   -16.037395  H        0.000000     0.000000    -0.012769    -0.014466     0.003789
atom      8.027493    -6.767699    13.848529  O        0.000000     0.000000     0.057362     0.021580    -0.027152
atom      9.465597    -5.330200    14.033516  H        0.000000     0.000000    -0.027159    -0.036180    -0.005704
atom      6.796620    -6.488143    15.093465  H        0.000000     0.000000    -0.026178     0.010176     0.028500
atom     38.127026    -1.737962   -10.178515  O        0.000000     0.000000     0.001163    -0.015057     0.017707
atom     37.822685    -3.197051    -8.999366  H        0.000000     0.000000    -0.003623     0.008630    -0.008839
atom     39.892330    -1.362302    -9.723877  H        0.000000     0.000000     0.005076     0.004186    -0.003127
atom     16.186569    30.195984    11.367407  O        0.000000     0.000000    -0.024077     0.017507    -0.020934
atom     16.622719    31.662016    10.230633  H        0.000000     0.000000     0.008076    -0.012184     0.012679
atom     17.686369    29.564240    12.199999  H        0.000000     0.000000     0.018356    -0.001958     0.002797
atom     43.285843   -24.811520    -9.369305  O        0.000000     0.000000     0.006799    -0.001419    -0.025141
atom     41.753551   -25.257551   -10.393146  H        0.000000     0.000000     0.004198    -0.000408     0.000139
atom     42.885170   -24.953983    -7.616005  H        0.000000     0.000000    -0.007768    -0.001517     0.028917
atom     -6.751350    62.993488     1.971732  O        0.000000     0.000000    -0.020219     0.001298    -0.005068
atom     -7.127621    63.953926     3.576452  H        0.000000     0.000000     0.002153    -0.005448    -0.007771
atom     -5.310405    61.927319     2.240263  H        0.000000     0.000000     0.016437    -0.005842     0.004079
atom     82.508698     0.460894     3.752891  O        0.000000     0.000000    -0.037664    -0.012672    -0.009165
atom     82.864174     0.783623     5.553696  H        0.000000     0.000000     0.004440     0.003353     0.005672
atom     80.710632    -0.455961     3.787428  H        0.000000     0.000000     0.034032     0.013626    -0.004071
atom     53.132305    51.020157    17.689579  O        0.000000     0.000000    -0.000563    -0.002776     0.015992
atom     54.747177    51.324425    16.855774  H        0.000000     0.000000     0.009576     0.002926    -0.009766
atom     51.880646    51.266090    16.402140  H        0.000000     0.000000    -0.011598     0.000793    -0.011489
atom     48.152550     1.290717   -19.551325  O        0.000000     0.000000    -0.022765    -0.049693     0.037360
atom     47.976276     1.354308   -17.647703  H        0.000000     0.000000     0.006847     0.006073    -0.021352
atom     48.821697     2.782797   -20.274199  H        0.000000     0.000000     0.011223     0.035914    -0.010414
atom     39.407917     4.249318     6.743845  O        0.000000     0.000000    -0.001893     0.005495     0.019302
atom     39.167370     4.077642     4.937696  H        0.000000     0.000000     0.002418    -0.008897    -0.014937
atom     41.202919     3.815205     7.200861  H        0.000000     0.000000    -0.010848     0.003372    -0.002226
atom     -1.739490     7.462128     0.195109  O        0.000000     0.000000     0.017413     0.029498    -0.032194
atom     -2.253496     7.445717    -1.692898  H        0.000000     0.000000    -0.006979    -0.012837     0.027877
atom     -0.022946     8.346369    -0.061579  H        0.000000     0.000000    -0.011616    -0.014437     0.014388
atom      2.347461     6.677458    29.427866  O        0.000000     0.000000    -0.010485    -0.023029     0.010290
atom      2.025415     5.421549    30.827774  H        0.000000     0.000000     0.001972     0.008038    -0.000015
atom      2.138369     5.549989    27.936243  H        0.000000     0.000000     0.007426     0.010475    -0.004300
atom    -13.409476    44.708611    -9.983518  O        0.000000     0.000000    -0.003251    -0.039889    -0.002618
atom    -12.968867    46.340561   -10.496222  H        0.000000     0.000000     0.004269     0.049916    -0.004439
atom    -12.923457    43.807529   -11.534645  H        0.000000     0.000000     0.001653    -0.010225    -0.002927
atom     10.039665    10.798655     1.887036  O        0.000000     0.000000    -0.010303    -0.007181    -0.013183
atom     10.793417    11.246826     3.513291  H        0.000000     0.000000     0.005409     0.009145     0.007231
atom      9.286242     9.113667     2.174953  H        0.000000     0.000000     0.004106     0.002420     0.000364
atom     14.095095   -12.590845   -15.143276  O        0.000000     0.000000     0.014840     0.015469     0.000210
atom     14.489586   -11.138050   -16.280424  H        0.000000     0.000000    -0.009566    -0.002084    -0.002284
atom     15.711734   -13.540586   -15.157765  H        0.000000     0.000000    -0.004019    -0.012940    -0.006473
atom     29.709190    20.436178    15.733822  O        0.000000     0.000000     0.039667    -0.004384    -0.034655
atom     29.865814    19.436836    17.270100  H        0.000000     0.000000    -0.003907    -0.008460     0.011514
atom     31.410244    19.768076    14.706958  H        0.000000     0.000000    -0.032522     0.017541     0.024178
atom     12.378046    13.526577    41.250313  O        0.000000     0.000000    -0.017569    -0.026748     0.022765
atom     14.095788    13.015636    40.971275  H        0.000000     0.000000     0.020857     0.001572    -0.007542