begin
lattice        37.050095        0.000000        0.000000
lattice         0.000000       18.525047        0.000000
lattice         0.000000        0.000000       18.525047
atom     32.023941    -6.959776    -2.510962  Na       0.000000     0.000000     0.000969    -0.004521     0.004787
atom     27.839277    48.358608     9.066352  Cl       0.000000     0.000000     0.001965    -0.001164    -0.003593
atom     11.274282    -6.579320    13.381626  O        0.000000     0.000000     0.005077    -0.010478     0.013414
atom     12.839324    -6.654589    14.417398  H        0.000000     0.000000    -0.004998     0.002159    -0.012793
atom     10.159176    -7.497077    14.518536  H        0.000000     0.000000    -0.005863     0.003010    -0.009720
atom    -14.064987    10.137063    36.504688  O        0.000000     0.000000     0.013406     0.004733     0.004533
atom    -14.780827    11.856328    36.322498  H        0.000000     0.000000    -0.000678    -0.000291    -0.000355
atom    -12.920315    10.220117    37.958256  H        0.000000     0.000000    -0.008516    -0.004659    -0.010736
atom     34.510582     6.155451    25.193361  O        0.000000     0.000000     0.002219    -0.016671     0.009416
atom     34.035183     7.862548    24.743793  H        0.000000     0.000000    -0.001247     0.008495     0.000273
atom     33.872646     5.857759    26.928930  H        0.000000     0.000000    -0.001028     0.004059    -0.008600
atom     -9.082981    21.041033    -0.661648  O        0.000000     0.000000     0.002095    -0.008730     0.002297
atom     -8.037570    19.560564    -0.907490  H        0.000000     0.000000     0.006438     0.002003    -0.000597
atom     -9.428593    21.627771    -2.364114  H        0.000000     0.000000    -0.008288     0.005431    -0.007650
atom     38.127151     7.524739    37.907352  O        0.000000     0.000000    -0.011690     0.000510    -0.005771
atom     38.623158     9.223382    37.261147  H        0.000000     0.000000    -0.003422    -0.017258     0.007596
atom     39.202774     6.212218    37.172672  H        0.000000     0.000000     0.001825     0.007363    -0.001474
atom     25.560406     4.934002    50.852798  O        0.000000     0.000000     0.012129    -0.019717    -0.049060
atom     25.975655     4.362161    49.033325  H        0.000000     0.000000    -0.010108     0.013025     0.045286
atom     26.341581     6.593614    50.898952  H        0.000000     0.000000     0.003761     0.005750     0.002120
atom     15.119596    11.609145    16.560452  O        0.000000     0.000000    -0.028940     0.016012     0.032349
atom     14.786429    10.136734    17.569151  H        0.000000     0.000000    -0.011558    -0.010558     0.009179
atom     16.511864    11.024539    15.696591  H        0.000000     0.000000     0.045101    -0.007671    -0.037121
atom     24.217051    -0.490453    19.520838  O        0.000000     0.000000    -0.030043     0.030154    -0.010286
atom     22.839725     0.917161    19.697718  H        0.000000     0.000000     0.025328    -0.025666     0.002422
atom     25.512913     0.539271    18.608191  H        0.000000     0.000000    -0.003747    -0.002353     0.004686
atom     19.179255   -14.789680   -24.969036  O        0.000000     0.000000     0.022897    -0.000573     0.001351
atom     19.816132   -13.852515   -23.491430  H        0.000000     0.000000    -0.009986     0.002305     0.003878
atom     20.812731   -15.387296   -25.619001  H        0.000000     0.000000    -0.011149    -0.005864    -0.009194
atom     39.881962    13.868755   -13.303629  O        0.000000     0.000000     0.011295     0.018496     0.002094
atom     41.234383    15.151065   -12.984114  H        0.000000     0.000000    -0.010342    -0.026610     0.001029
atom     40.559765    12.183287   -12.887119  H        0.000000     0.000000    -0.000651     0.001813     0.000193
atom     47.840355    30.058622   -50.853645  O        0.000000     0.000000    -0.012602     0.013275    -0.011511
atom     47.200577    29.426840   -49.222153  H        0.000000     0.000000    -0.005207    -0.003280     0.001732
atom     46.534271    31.297140   -51.402550  H        0.000000     0.000000     0.016921    -0.015680     0.011656
atom     27.900143     9.954103   -22.530987  O        0.000000     0.000000    -0.003014    -0.010198     0.017717
atom     28.079365    10.379795   -24.321323  H        0.000000     0.000000    -0.006494     0.003938    -0.008929
atom     26.177633    10.374147   -22.036263  H        0.000000     0.000000     0.004228     0.001447    -0.000972
atom     29.736135    -3.251022    14.968371  O        0.000000     0.000000    -0.009919     0.004247    -0.001707
atom     30.681467    -2.319398    13.687882  H        0.000000     0.000000    -0.009216    -0.002490    -0.000267
atom     27.975864    -3.361883    14.347851  H        0.000000     0.000000     0.019019     0.005513    -0.001694
atom      2.846592    30.726912    -0.577656  O        0.000000     0.000000     0.021497    -0.003038     0.035181
atom      4.070853    29.306961    -0.572228  H        0.000000     0.000000     0.004945     0.004700    -0.013599
atom      3.482476    31.450096     1.075355  H        0.000000     0.000000    -0.020139    -0.002869    -0.026087
atom     27.317087    23.266417     7.405044  O        0.000000     0.000000     0.007112     0.015830     0.022254
atom     28.297647    21.735485     7.046833  H        0.000000     0.000000     0.004666    -0.003999    -0.010232
atom     28.506765    24.300697     8.427914  H        0.000000     0.000000    -0.015437    -0.009596    -0.011063
atom    -26.322027    16.230309    10.620093  O        0.000000     0.000000    -0.002695     0.003292    -0.006638
atom    -24.525341    16.532187    10.580242  H        0.000000     0.000000     0.012881     0.020835     0.000606
atom    -26.170782    14.475334    11.083660  H        0.000000     0.000000    -0.015483    -0.018341     0.012841
atom     19.020636    -4.196332     3.853427  O        0.000000     0.000000     0.008792    -0.035479    -0.006534
atom     20.301472    -4.967565     4.963090  H        0.000000     0.000000    -0.001203    -0.002541    -0.004891
atom     18.722910    -2.536800     4.421070  H        0.000000     0.000000    -0.002099     0.036516     0.010267
atom     22.598726   -16.608780   -10.131661  O        0.000000     0.000000     0.008605     0.026201    -0.009338
atom     23.914583   -15.332921   -10.578044  H        0.000000     0.000000    -0.014422    -0.011701     0.003380
atom     23.617901   -18.037195    -9.734341  H        0.000000     0.000000     0.012670    -0.018820     0.009023
atom     12.832467    -3.116935    19.361511  O        0.000000     0.000000    -0.017875    -0.002766    -0.046390
atom     14.137335    -4.127893    18.549604  H        0.000000     0.000000     0.004105    -0.002084     0.009930
atom     13.132373    -2.632845    21.028458  H        0.000000     0.000000     0.019089     0.008766     0.029231
atom     36.445030    14.373741    28.054647  O        0.000000     0.000000     0.025754     0.006768    -0.032224
atom     37.820263    14.613433    26.682079  H        0.000000     0.000000    -0.031531    -0.004624     0.025539
atom     35.101753    15.672812    27.849701  H        0.000000     0.000000     0.003133    -0.002113    -0.008132
atom     31.033430   -10.965791    37.888016  O        0.000000     0.000000     0.006813     0.005696     0.010524
atom     30.591007   -10.460849    39.604420  H        0.000000     0.000000     0.000118    -0.002933    -0.007997
atom     29.430332   -11.232302    37.075401  H        0.000000     0.000000    -0.006423    -0.004009    -0.000927
atom    -11.778790    16.151854    -7.323920  O        0.000000     0.000000    -0.003794     0.034075     0.015928
atom    -11.065461    14.784852    -8.223524  H        0.000000     0.000000     0.009441    -0.026601    -0.016153
atom    -13.532438    15.783610    -7.044584  H        0.000000     0.000000    -0.011045    -0.007683     0.003405
atom    -22.963633   -11.916859     5.418401  O        0.000000     0.000000     0.002570    -0.016534    -0.000648
atom    -24.290873   -13.057717     6.211939  H        0.000000     0.000000     0.017344     0.010805    -0.000733
atom    -23.970036   -10.514899     4.940183  H        0.000000     0.000000    -0.010054     0.021387    -0.006237
atom     77.302994    -9.955309     5.870787  O        0.000000     0.000000    -0.017371     0.010715     0.011801
atom     75.910942   -10.544673     4.849126  H        0.000000     0.000000    -0.005397     0.002492    -0.006558
atom     78.651306   -11.014222     5.295320  H        0.000000     0.000000     0.020548    -0.009299    -0.004377
atom      9.202099    -9.671215   -28.074200  O        0.000000     0.000000     0.006965     0.011394     0.018527
atom      7.916525    -8.854680   -26.938641  H        0.000000     0.000000     0.004841    -0.007271    -0.014143
atom     10.728954    -9.517101   -27.020941  H        0.000000     0.000000    -0.010259    -0.000575    -0.005897
atom     36.646793    20.071239    24.688944  O        0.000000     0.000000    -0.000523     0.007867     0.006255
atom     35.956707    21.832157    24.636492  H        0.000000     0.000000     0.008426    -0.009117     0.004547
atom     38.177750    20.050493    25.738895  H        0.000000     0.000000    -0.006349     0.005338    -0.008429
atom     20.977320    22.145639     1.800133  O        0.000000     0.000000    -0.011098     0.010193    -0.026470
atom     20.257166    23.066442     0.270179  H        0.000000     0.000000     0.013760    -0.015983     0.018786
atom     22.360266    23.282543     2.312364  H        0.000000     0.000000     0.003407     0.002185     0.006335
atom      8.132110    14.031259   -18.828447  O        0.000000     0.000000    -0.012489     0.032022    -0.000235
atom      9.878459    14.383615   -18.426071  H        0.000000     0.000000     0.014579     0.001764    -0.001723
atom      7.911807    12.295610   -18.483850  H        0.000000     0.000000    -0.006083    -0.034135     0.001838
atom     43.473789   -14.631302    -6.376517  O        0.000000     0.000000    -0.034066    -0.034978     0.020818
atom     43.246319   -16.090302    -7.621855  H        0.000000     0.000000     0.001376     0.027351     0.011885
atom     42.262836   -15.273150    -4.999657  H        0.000000     0.000000     0.024723     0.011887    -0.020686
atom     16.807478    29.684196    -7.544655  O        0.000000     0.000000     0.005368     0.003213     0.003449
atom     15.925230    30.723301    -8.788814  H        0.000000     0.000000    -0.001192    -0.003707     0.000240
atom     17.701012    28.385996    -8.566015  H        0.000000     0.000000    -0.003945    -0.000449     0.003946
atom      7.790346    34.260349   -11.857991  O        0.000000     0.000000    -0.011761     0.002806     0.014814
atom      8.835897    34.803509   -10.343093  H        0.000000     0.000000     0.005136    -0.010635    -0.016057
atom      7.884449    35.560974   -13.175870  H        0.000000     0.000000     0.007087     0.005298     0.004773
atom     33.097965    20.781826     1.168362  O        0.000000     0.000000     0.003214     0.014299     0.007922
atom     34.772350    20.936348     1.919443  H        0.000000     0.000000    -0.005226    -0.001867    -0.004276
atom     32.505508    22.558891     1.054216  H        0.000000     0.000000    -0.000768    -0.009324    -0.001649
atom      7.384390   -12.638494   -32.630970  O        0.000000     0.000000    -0.001484     0.020146     0.005748
atom      8.170454   -13.001715   -31.026722  H        0.000000     0.000000     0.006001     0.003561     0.006987
atom      7.247508   -14.230077   -33.419498  H        0.000000     0.000000    -0.001662    -0.027190    -0.011830
atom     35.621090    -4.643015    -4.154448  O        0.000000     0.000000    -0.007182     0.009235    -0.025279
atom     37.052345    -5.297336    -3.260368  H        0.000000     0.000000     0.011194     0.001191     0.004549
atom     36.190079    -4.293748    -5.974102  H        0.000000     0.000000    -0.002700    -0.013857     0.028885
atom     19.532412    -3.433563    -5.703547  O        0.000000     0.000000    -0.003168     0.012941    -0.022846
atom     18.718853    -5.041942    -6.150369  H        0.000000     0.000000    -0.001388    -0.003756    -0.002907
atom     19.835863    -3.403988    -3.904321  H        0.000000     0.000000     0.001118    -0.005373     0.013018
atom      0.063528    35.819160   -16.506025  O        0.000000     0.000000     0.008736    -0.011271     0.026217
atom      0.983369    34.237972   -16.006529  H        0.000000     0.000000    -0.015273     0.025367    -0.004162
atom     -0.091363    36.818848   -14.834765  H        0.000000     0.000000     0.004765    -0.016489    -0.022337
atom      4.412543     0.617997    27.409967  O        0.000000     0.000000    -0.007337    -0.011814     0.010621
atom      3.515680    -0.298015    28.768904  H        0.000000     0.000000     0.011621     0.004375    -0.009376
atom      5.708787    -0.594209    26.806240  H        0.000000     0.000000    -0.009283    -0.001877    -0.001275
atom     35.000938    75.425163   -22.187378  O        0.000000     0.000000    -0.019494     0.017400     0.046190
atom     34.164986    75.046051   -20.471373  H        0.000000     0.000000     0.015017     0.012570    -0.032998
atom     34.976498    73.849129   -23.008453  H        0.000000     0.000000     0.005904    -0.028787    -0.009681
atom     34.434383     7.501876    -3.388457  O        0.000000     0.000000     0.017610    -0.001673     0.050748
atom     35.759350     7.543512    -4.596828  H        0.000000     0.000000     0.013811    -0.000060    -0.025456
atom     35.567547     7.286809    -1.782141  H        0.000000     0.000000    -0.032037     0.003895    -0.027098
atom     18.567331     7.059767    -9.999809  O        0.000000     0.000000     0.022002     0.016856     0.005989
atom     18.859388     6.040008    -8.409391  H        0.000000     0.000000    -0.012726    -0.006692    -0.014741
atom     16.899544     6.839560   -10.702213  H        0.000000     0.000000    -0.006484    -0.008330    -0.002950
atom     19.929241   -11.947443    34.494541  O        0.000000     0.000000     0.036357    -0.013654    -0.012516
atom     21.106977   -10.687881    35.143723  H        0.000000     0.000000     0.001705     0.006400     0.005705
atom     18.297842   -11.683839    35.098957  H        0.000000     0.000000    -0.039250     0.011511     0.019799
atom     28.011452    33.942120    22.117050  O        0.000000     0.000000     0.012601     0.000577     0.022597
atom     29.600279    33.609451    21.233868  H        0.000000     0.000000     0.002561    -0.010680    -0.006597
atom     26.844156    34.653625    20.966654  H        0.000000     0.000000    -0.020797     0.009123    -0.016710
atom      5.255323   -44.798206    -6.843020  O        0.000000     0.000000    -0.005078    -0.012929     0.000309
atom      3.660976   -45.690247    -6.997877  H        0.000000     0.000000     0.000012    -0.016914    -0.006725
atom      4.619371   -43.181599    -6.415827  H        0.000000     0.000000     0.009551     0.031010     0.007491
atom     14.895363    13.600632    25.284328  O        0.000000     0.000000     0.003365     0.001864    -0.014387
atom     13.574324    12.910993    24.147053  H        0.000000     0.000000    -0.009392    -0.006738     0.011274
atom     16.445393    13.256767    24.313597  H        0.000000     0.000000    -0.000443     0.005103     0.002231
atom     -3.891162    11.133266    43.484737  O        0.000000     0.000000     0.030801     0.003472    -0.004838
atom     -5.283467    10.935166    44.620041  H        0.000000     0.000000    -0.022760     0.001819     0.009805
atom     -2.502753    11.768639    44.568573  H        0.000000     0.000000    -0.007869     0.000516    -0.005847
atom     31.909355    23.212614    11.036808  O        0.000000     0.000000     0.014386    -0.008374     0.029718
atom     32.540138    21.448370    11.028296  H        0.000000     0.000000    -0.007463     0.018458     0.003520
atom     32.384258    23.792067    12.814074  H        0.000000     0.000000    -0.004067    -0.009224    -0.030936
atom     43.036274    16.017868    -5.064871  O        0.000000     0.000000    -0.031871    -0.021551     0.038805
atom     44.507374    16.713781    -5.727136  H        0.000000     0.000000     0.038583     0.012928    -0.014830
atom     43.581470    15.346422    -3.371089  H        0.000000     0.000000    -0.006590     0.007134    -0.023014
atom     11.314602   -14.819090   -10.581968  O        0.000000     0.000000    -0.025199     0.012436    -0.048202
atom     11.282063   -14.520665    -8.876091  H        0.000000     0.000000     0.000016     0.005258     0.054680
atom     12.084528   -16.368570   -11.037464  H        0.000000     0.000000     0.010211    -0.032455     0.000156
atom     67.107246     0.849376     5.704173  O        0.000000     0.000000     0.004859    -0.005299    -0.017288
atom     68.458000     1.313488     4.484972  H        0.000000     0.000000    -0.013822     0.000265     0.007829
atom     66.117233    -0.566747     4.772284  H        0.000000     0.000000     0.008619     0.008104     0.013657
atom      1.732804   -11.666072    11.089347  O        0.000000     0.000000    -0.003858     0.003614     0.019741
atom      3.276803   -12.388339    11.817430  H        0.000000     0.000000    -0.004177    -0.001842    -0.016349
atom      1.839774   -11.705616     9.265771  H        0.000000     0.000000     0.008154     0.000729    -0.003190
atom      2.842348     2.796996    -1.689997  O        0.000000     0.000000    -0.047231     0.014031    -0.010688
atom      3.262513     1.517071    -0.504149  H        0.000000     0.000000     0.004241    -0.014605     0.010845
atom      0.912376     2.485553    -1.904269  H        0.000000     0.000000     0.042858     0.001470    -0.007321
atom    -27.233978     6.053169    52.443226  O        0.000000     0.000000    -0.000906     0.000494     0.004989
atom    -26.187704     4.721790    53.215168  H        0.000000     0.000000    -0.008725     0.003575    -0.007978
atom    -28.491478     5.222618    51.366402  H        0.000000     0.000000     0.009068    -0.007297    -0.005812
atom     22.145933    29.276213    24.738642  O        0.000000     0.000000     0.006309    -0.020246     0.028565
atom     21.358459    27.715324    25.540470  H        0.000000     0.000000     0.002350     0.027423    -0.010452
atom     23.564007    29.696283    25.923927  H        0.000000     0.000000    -0.012584    -0.005648    -0.016568
atom     24.778864    25.437607    21.973772  O        0.000000     0.000000     0.026255    -0.043851    -0.017738
atom     25.560629    24.713585    23.499887  H        0.000000     0.000000     0.007880    -0.000902    -0.005983
atom     23.810326    26.731327    22.624344  H        0.000000     0.000000    -0.031802     0.044351     0.021616
atom    -16.290846    14.638692    17.497881  O        0.000000     0.000000     0.024706     0.019430     0.020742
atom    -17.060644    14.550374    19.181669  H        0.000000     0.000000    -0.010331    -0.005012     0.002206
atom    -14.900538    15.893454    17.968061  H        0.000000     0.000000    -0.007461    -0.009335    -0.010675
atom      8.357950   -36.516476     3.027287  O        0.000000     0.000000    -0.013601     0.000549    -0.006078
atom     10.140022   -36.625839     3.341656  H        0.000000     0.000000     0.017015     0.002913     0.001083
atom      8.010474   -37.867149     1.836405  H        0.000000     0.000000     0.000283     0.000645    -0.006909
atom    -24.003952     1.615155    34.876503  O        0.000000     0.000000     0.013153    -0.002923    -0.019003
atom    -23.143053     1.114497    33.255341  H        0.000000     0.000000    -0.005214     0.009346     0.010533
atom    -24.170168    -0.042243    35.619350  H        0.000000     0.000000    -0.004520    -0.003140     0.011307
atom     15.432950   -18.889908    49.172924  O        0.000000     0.000000     0.012824    -0.012263    -0.005264
atom     15.886907   -17.775938    47.773617  H        0.000000     0.000000     0.006381    -0.004306     0.013298
atom     17.038431   -19.928484    49.584385  H        0.000000     0.000000    -0.016166     0.014222    -0.011075
atom    -18.731359     1.063771    23.882072  O        0.000000     0.000000    -0.041275     0.006848    -0.047826
atom    -18.064636     2.127734    22.461832  H        0.000000     0.000000    -0.002512    -0.003370     0.010862
atom    -17.304125     0.768806    24.830641  H        0.000000     0.000000     0.047170     0.000708     0.040005
atom      6.825182    -9.849958    -0.046637  O        0.000000     0.000000     0.006587    -0.015273    -0.023768
atom      7.603298   -11.032810    -1.423286  H        0.000000     0.000000    -0.002358     0.023667     0.027312
atom      7.298934   -10.672289     1.532416  H        0.000000     0.000000    -0.000740     0.002915     0.000582
atom     15.241274     6.268675    18.472431  O        0.000000     0.000000     0.010130     0.010325    -0.033282
atom     14.984668     6.316965    20.215670  H        0.000000     0.000000    -0.004291     0.006158     0.048824
atom     15.050758     4.500336    18.147387  H        0.000000     0.000000    -0.007592    -0.016953    -0.014525
atom     13.432287    -0.112682     5.360980  O        0.000000     0.000000     0.026696    -0.005349     0.003176
atom     15.153294     0.745113     5.491063  H        0.000000     0.000000    -0.017578    -0.008131    -0.007956
atom     14.038136    -1.894243     5.689578  H        0.000000     0.000000    -0.010129     0.012800     0.013321
atom     -5.070044    53.936726     9.527393  O        0.000000     0.000000    -0.006035    -0.011671     0.004755
atom     -5.763221    55.151932     8.253761  H        0.000000     0.000000     0.002958    -0.007329    -0.003297
atom     -6.033181    52.381096     9.164849  H        0.000000     0.000000     0.004540     0.011604     0.003236
atom     32.441170    -4.838785   -16.684729  O        0.000000     0.000000     0.024430     0.011470     0.024054
atom     32.882946    -5.627789   -15.002893  H        0.000000     0.000000    -0.011034     0.001272    -0.018909
atom     33.610462    -3.362219   -16.631233  H        0.000000     0.000000    -0.006309    -0.011335    -0.009067
energy  -1164.761683
charge      0.000000
end
begin
lattice        38.044575        0.000000        0.000000
lattice         0.000000       19.022287        0.000000
lattice         0.000000        0.000000       19.022287
atom     41.619564   -19.022104    -2.867485  Na       0.000000     0.000000     0.007513     0.000057    -0.005941
atom     48.097649    33.797539    15.768570  Cl       0.000000     0.000000    -0.003183     0.000529    -0.007655
atom     17.983809     8.645981    15.783659  O        0.000000     0.000000    -0.025418     0.011063     0.023649
atom     17.130650     8.771501    17.500860  H        0.000000     0.000000     0.011055    -0.006617    -0.018562
atom     16.680313     9.509143    14.806740  H        0.000000     0.000000     0.007648     0.002967    -0.005216
atom    -37.646652    15.659893    26.880255  O        0.000000     0.000000     0.001509     0.009711    -0.017278
atom    -37.924023    14.246692    25.731194  H        0.000000     0.000000    -0.003295     0.003681     0.008569
atom    -37.818859    15.046134    28.578894  H        0.000000     0.000000    -0.000452    -0.018462     0.009054
atom     30.891529    29.594336    39.620525  O        0.000000     0.000000     0.009617     0.028401     0.006604
atom     29.626665    28.335432    39.728802  H        0.000000     0.000000    -0.020352    -0.028231    -0.002402
atom     29.968348    31.018166    40.338570  H        0.000000     0.000000     0.006371     0.000269    -0.002054
atom    -16.812260    -5.212634   -25.852388  O        0.000000     0.000000    -0.004156    -0.010731    -0.000325
atom    -16.173120    -6.862127   -26.363350  H        0.000000     0.000000     0.001429     0.003459     0.001454
atom    -18.613150    -5.605561   -25.703861  H        0.000000     0.000000     0.000614     0.006725     0.002203
atom     44.809227     7.937829    31.399286  O        0.000000     0.000000    -0.021114     0.004214     0.002367
atom     46.396976     7.041330    31.725544  H        0.000000     0.000000     0.011080    -0.007115    -0.000451
atom     45.243462     9.458800    30.520226  H        0.000000     0.000000     0.003888     0.014260    -0.007276
atom     42.811001   -21.421621    22.787025  O        0.000000     0.000000     0.003295    -0.005572    -0.014058
atom     41.792286   -20.461868    21.531981  H        0.000000     0.000000     0.000689    -0.013902     0.008230
atom     42.878017   -23.247911    22.373367  H        0.000000     0.000000    -0.010871     0.014930     0.002574
atom     30.204571    26.466665    11.843658  O        0.000000     0.000000    -0.012207    -0.004268    -0.007551
atom     31.964596    26.084578    12.092095  H        0.000000     0.000000     0.011059     0.004435     0.003512
atom     29.986204    28.249447    12.255301  H        0.000000     0.000000     0.005713     0.001885     0.005590
atom     36.941631    -5.493700    -6.522052  O        0.000000     0.000000     0.029228    -0.007924     0.000738
atom     38.542965    -5.149559    -5.605471  H        0.000000     0.000000    -0.012914    -0.004078    -0.007968
atom     35.856571    -4.118924    -6.086401  H        0.000000     0.000000    -0.016816     0.010461     0.013272
atom     17.353939   -32.578720   -15.928885  O        0.000000     0.000000     0.013985    -0.000438     0.029381
atom     18.804499   -32.172485   -14.726483  H        0.000000     0.000000    -0.019963     0.000867    -0.003397
atom     18.348421   -33.153526   -17.374573  H        0.000000     0.000000     0.008303     0.000633    -0.015009
atom     48.622746    25.140276    -0.255570  O        0.000000     0.000000    -0.013117     0.007410     0.001648
atom     48.330334    24.328196     1.395074  H        0.000000     0.000000     0.001641     0.003687    -0.006116
atom     47.229774    26.379656    -0.544317  H        0.000000     0.000000     0.012663    -0.010049     0.001611
atom     55.530895    20.849684   -23.022266  O        0.000000     0.000000    -0.015650    -0.007959    -0.001609
atom     55.546368    20.593164   -24.874886  H        0.000000     0.000000    -0.001375     0.004685     0.006503
atom     53.731831    20.857374   -22.530293  H        0.000000     0.000000     0.012846     0.002434    -0.007348
atom     11.654718    30.812086   -34.485039  O        0.000000     0.000000    -0.023001    -0.008692     0.025454
atom     12.469080    29.992447   -35.894360  H        0.000000     0.000000     0.014090     0.000685    -0.011534
atom     11.571159    32.615425   -34.652702  H        0.000000     0.000000     0.001383     0.013384    -0.008371
atom     40.274086   -13.337556    30.938379  O        0.000000     0.000000     0.001019    -0.004567    -0.032859
atom     40.266994   -14.031891    29.173010  H        0.000000     0.000000     0.001861     0.010842     0.026311
atom     41.914730   -12.392874    31.048470  H        0.000000     0.000000    -0.007321    -0.010179     0.001352
atom      9.892554    16.958067   -15.836346  O        0.000000     0.000000    -0.018686    -0.024712     0.026479
atom      8.097791    17.094355   -16.370090  H        0.000000     0.000000     0.013645     0.006757     0.002560
atom     10.933487    18.015104   -16.797962  H        0.000000     0.000000     0.009998     0.015205    -0.020852
atom     35.658836    30.353373     4.407272  O        0.000000     0.000000    -0.015316    -0.021042    -0.017985
atom     36.254616    29.138412     3.117597  H        0.000000     0.000000     0.000348     0.010651     0.010018
atom     33.820766    29.973263     4.225873  H        0.000000     0.000000     0.013818     0.005376     0.005754
atom    -11.381333     7.155169    19.356802  O        0.000000     0.000000    -0.007861    -0.021935    -0.022987
atom    -11.613218     6.440493    17.505898  H        0.000000     0.000000     0.005610     0.012495     0.033490
atom    -11.771784     5.703412    20.459932  H        0.000000     0.000000     0.000355     0.012187    -0.006749
atom      7.025546     9.867385    -1.632125  O        0.000000     0.000000    -0.029751    -0.028143     0.009238
atom      7.928192    11.374775    -1.832904  H        0.000000     0.000000     0.028737     0.037698    -0.005122
atom      6.208688     9.696508    -3.278864  H        0.000000     0.000000     0.003126    -0.008922     0.001592
atom     21.070299   -11.685090    -6.927516  O        0.000000     0.000000     0.008329     0.000631    -0.015204
atom     22.694775   -12.120995    -6.215952  H        0.000000     0.000000     0.003791    -0.001979     0.002712
atom     19.980696   -11.425255    -5.482115  H        0.000000     0.000000    -0.004226    -0.000719     0.007665
atom     -4.766486    16.058041    15.645275  O        0.000000     0.000000     0.020252    -0.023712     0.007617
atom     -5.591995    17.641706    15.978859  H        0.000000     0.000000    -0.005392     0.008359     0.010003
atom     -3.747891    15.665565    17.239227  H        0.000000     0.000000    -0.018500     0.007797    -0.018772
atom     29.216114    -2.619702    29.734568  O        0.000000     0.000000     0.027195     0.024710    -0.003870
atom     29.101526    -4.142663    30.695362  H        0.000000     0.000000    -0.001458    -0.019539     0.012607