begin
lattice        23.742275        0.000000        0.000000
lattice         0.000000       23.742275        0.000000
lattice         0.000000        0.000000       23.742275
atom     17.506163    18.914593    12.414381  Na       0.000000     0.000000     0.000253     0.006062     0.000096
atom     29.551939    18.389570     7.339273  Na       0.000000     0.000000     0.004848    -0.006078     0.005638
atom     18.515635     0.247414    -0.417659  Cl       0.000000     0.000000     0.002554    -0.004848     0.000117
atom     23.176849    24.755339     8.462606  Cl       0.000000     0.000000    -0.005721     0.000633    -0.004720
atom     18.192822    16.173922    28.735264  O        0.000000     0.000000     0.007428    -0.026334     0.004994
atom     19.652355    14.930974    28.621887  H        0.000000     0.000000    -0.015086     0.028419    -0.006878
atom     18.768393    17.921099    28.903385  H        0.000000     0.000000     0.010382    -0.001547    -0.005959
atom      5.038448   -11.234932    11.751755  O        0.000000     0.000000    -0.029624     0.031042    -0.028591
atom      3.767044   -10.163839    10.704161  H        0.000000     0.000000     0.026941    -0.027897     0.023723
atom      6.545601   -11.025945    10.741434  H        0.000000     0.000000     0.002128    -0.002685     0.005277
atom     19.518686   -13.939114    22.648701  O        0.000000     0.000000     0.005623    -0.010452     0.019934
atom     18.557930   -12.512805    22.085726  H        0.000000     0.000000    -0.007814     0.018337    -0.005633
atom     19.396553   -13.894137    24.522390  H        0.000000     0.000000    -0.000204    -0.007169    -0.013910
atom     25.528893    -8.454363     8.578481  O        0.000000     0.000000    -0.007999    -0.017014    -0.017730
atom     24.440361    -9.344660     7.307627  H        0.000000     0.000000     0.018077     0.010281     0.007355
atom     24.331671    -7.585908     9.604675  H        0.000000     0.000000    -0.009118     0.012915     0.013183
atom     39.180225     2.760983    -9.050613  O        0.000000     0.000000     0.011936    -0.006368    -0.008759
atom     39.799465     1.897359    -7.554033  H        0.000000     0.000000    -0.002875    -0.011841     0.000477
atom     37.344666     2.788210    -8.938854  H        0.000000     0.000000    -0.007822     0.000241     0.002467
atom     32.935318    -4.798610     3.331526  O        0.000000     0.000000     0.012001    -0.019977     0.014205
atom     34.628147    -5.436426     3.029662  H        0.000000     0.000000    -0.006597    -0.001737     0.004551
atom     32.735294    -3.480900     2.138059  H        0.000000     0.000000    -0.008905     0.021550    -0.018138
atom     11.033347     1.303325    29.854309  O        0.000000     0.000000    -0.024101     0.032950    -0.019845
atom      9.297109     2.088329    30.142197  H        0.000000     0.000000     0.036469    -0.022249    -0.008318
atom     11.711502     1.837807    28.165356  H        0.000000     0.000000    -0.010064    -0.007248     0.019522
atom     19.018370     8.247838    27.445618  O        0.000000     0.000000     0.000989    -0.001143     0.006067
atom     19.593477     6.494376    27.158941  H        0.000000     0.000000    -0.000911     0.007699     0.002911
atom     17.425573     8.154846    28.328753  H        0.000000     0.000000     0.000883    -0.001753    -0.004626
atom     13.017398    18.957733    12.008637  O        0.000000     0.000000     0.015724     0.007866    -0.019833
atom     13.154416    20.404858    10.682285  H        0.000000     0.000000    -0.010234    -0.021492     0.018560
atom     11.790742    19.347292    13.271410  H        0.000000     0.000000    -0.009600     0.008369     0.006727
atom    -12.563739    23.567228    19.571190  O        0.000000     0.000000     0.019859     0.046728    -0.014262
atom    -10.741321    23.537142    19.301794  H        0.000000     0.000000    -0.001127     0.012488    -0.003812
atom    -12.730206    21.879583    19.927208  H        0.000000     0.000000    -0.022996    -0.062292     0.016377
atom     17.122168    30.773890    39.670109  O        0.000000     0.000000     0.000110     0.004761    -0.020221
atom     17.461252    30.660301    41.458984  H        0.000000     0.000000    -0.000425    -0.001971     0.009657
atom     16.520208    29.032890    39.258381  H        0.000000     0.000000     0.005130     0.012115    -0.001309
atom     22.429007    16.280361    -2.465725  O        0.000000     0.000000    -0.007836     0.016265     0.012911
atom     22.187136    17.967049    -1.618774  H        0.000000     0.000000     0.008901    -0.022933    -0.009108
atom     23.477705    15.458987    -1.181343  H        0.000000     0.000000    -0.001107    -0.006862    -0.005975
atom      2.770211   -18.234552     8.803068  O        0.000000     0.000000     0.004127     0.003318     0.021809
atom      1.221254   -19.186867     8.724753  H        0.000000     0.000000    -0.005497    -0.012060     0.000922
atom      2.832992   -17.404696     7.217287  H        0.000000     0.000000     0.003848     0.011524    -0.022086
atom     17.351171    -9.398175    21.081867  O        0.000000     0.000000    -0.000565     0.029285     0.018240
atom     19.125177    -8.843338    20.831781  H        0.000000     0.000000    -0.014053    -0.001610     0.011289
atom     16.633871    -8.108469    22.380819  H        0.000000     0.000000     0.020502    -0.025834    -0.036451
atom     19.769169    -2.785171    28.211933  O        0.000000     0.000000    -0.010064     0.003386    -0.015026
atom     19.273405    -1.617374    26.869207  H        0.000000     0.000000     0.000015    -0.013180    -0.001970
atom     20.140871    -1.606540    29.498245  H        0.000000     0.000000     0.010560     0.010216     0.026317
atom     31.487576    10.522932    29.813787  O        0.000000     0.000000     0.002502    -0.010028     0.032788
atom     31.668594     9.742602    31.560558  H        0.000000     0.000000    -0.001492     0.014166    -0.029819
atom     33.202229    10.919379    29.324564  H        0.000000     0.000000     0.004521    -0.003719    -0.001688
atom    -10.920199     6.471684    30.949001  O        0.000000     0.000000    -0.000952    -0.008456     0.001530
atom     -9.355769     6.234667    31.929028  H        0.000000     0.000000     0.000470     0.007641    -0.006002
atom    -11.240396     4.778134    30.297512  H        0.000000     0.000000    -0.002166     0.001647     0.003934
atom      3.027777    21.204679    29.234800  O        0.000000     0.000000    -0.018879    -0.003465    -0.026286
atom      2.157427    22.247776    30.492302  H        0.000000     0.000000    -0.009037    -0.005122    -0.006233
atom      1.752047    20.755995    27.874655  H        0.000000     0.000000     0.020520     0.011053     0.027882
atom     -5.589786    15.129475    10.307142  O        0.000000     0.000000     0.009895    -0.019511     0.000490
atom     -4.485665    13.673720    10.699625  H        0.000000     0.000000    -0.010778     0.011855     0.001967
atom     -5.475718    15.336266     8.483331  H        0.000000     0.000000    -0.005761     0.002533    -0.001704
atom     -6.396261    30.076738     9.522852  O        0.000000     0.000000    -0.003960    -0.002337     0.017412
atom     -6.619258    29.766405    11.324097  H        0.000000     0.000000     0.001276    -0.004087    -0.008420
atom     -5.491459    31.653173     9.607807  H        0.000000     0.000000     0.005683     0.004471    -0.002475
atom     -2.280804    27.684908     2.847257  O        0.000000     0.000000     0.011206     0.024324     0.010189
atom     -1.809162    26.929768     4.433131  H        0.000000     0.000000     0.001450    -0.007068     0.004266
atom     -2.820580    26.400719     1.724038  H        0.000000     0.000000    -0.008209    -0.017378    -0.009450
atom     23.481585    20.163166    24.251320  O        0.000000     0.000000    -0.020040     0.016804    -0.006630
atom     24.984158    20.395039    23.225594  H        0.000000     0.000000     0.018169    -0.000224    -0.004059
atom     22.419687    21.489235    23.494320  H        0.000000     0.000000     0.002615    -0.006689     0.016590
atom      0.533357    39.063038    16.600616  O        0.000000     0.000000     0.008740    -0.028035    -0.022427
atom      0.602751    37.226887    16.275047  H        0.000000     0.000000     0.000215     0.023938     0.004728
atom     -0.372744    39.280495    18.152857  H        0.000000     0.000000    -0.004722     0.002773     0.021535
atom     13.394824    37.133579    12.607399  O        0.000000     0.000000     0.018277     0.024033    -0.026533
atom     15.004510    37.702980    11.767065  H        0.000000     0.000000    -0.019792    -0.010044     0.011016
atom     12.124649    37.918812    11.488889  H        0.000000     0.000000     0.004552    -0.004820     0.010454
atom     -1.249300    18.461384    12.993289  O        0.000000     0.000000    -0.018310    -0.011894    -0.008592
atom     -0.785169    17.264240    14.294729  H        0.000000     0.000000     0.001592    -0.005645     0.002361
atom     -0.283333    19.910158    13.406935  H        0.000000     0.000000     0.015273     0.020926    -0.001796
atom    -18.463133    17.834755    41.484650  O        0.000000     0.000000     0.029857     0.020722     0.009521
atom    -19.950449    17.105711    40.881256  H        0.000000     0.000000    -0.033724    -0.018427    -0.017586
atom    -17.728470    16.517467    42.517746  H        0.000000     0.000000     0.004201    -0.004516     0.005056
atom     26.280184    -0.999407    13.134521  O        0.000000     0.000000    -0.018531     0.014275     0.006139
atom     25.469667     0.101768    11.867933  H        0.000000     0.000000     0.005675    -0.013270     0.006948
atom     27.837982    -1.531242    12.375443  H        0.000000     0.000000     0.005976    -0.000680    -0.009874
atom     36.591923    14.803465     4.660774  O        0.000000     0.000000     0.019845     0.050819     0.015648
atom     38.302475    15.589065     4.761986  H        0.000000     0.000000    -0.021712    -0.011399     0.004992
atom     36.926811    13.203830     3.959816  H        0.000000     0.000000    -0.000809    -0.035635    -0.012583
atom      2.886579    30.288488    27.061356  O        0.000000     0.000000     0.049553     0.011094     0.001652
atom      4.292805    31.116926    26.029518  H        0.000000     0.000000    -0.038389    -0.009439     0.019110
atom      1.543947    29.985178    25.926477  H        0.000000     0.000000    -0.016310    -0.002618    -0.014518
atom     30.881327     2.943565     9.777797  O        0.000000     0.000000    -0.018834    -0.017389    -0.027277
atom     29.186155     3.585073     9.414074  H        0.000000     0.000000     0.002580     0.003988    -0.002609
atom     31.539263     4.093764    10.940490  H        0.000000     0.000000     0.017313     0.021015     0.024261
atom     12.564184     7.283502    22.721779  O        0.000000     0.000000     0.027800     0.002606    -0.012835
atom     11.546001     8.102703    21.403690  H        0.000000     0.000000     0.007027    -0.005287    -0.001283
atom     14.362906     7.101629    22.047718  H        0.000000     0.000000    -0.039229    -0.001214     0.007213
atom     31.186571    13.870618    -3.001215  O        0.000000     0.000000    -0.004462    -0.018835     0.006429
atom     30.387188    13.071808    -1.530833  H        0.000000     0.000000     0.005886     0.009419    -0.007672
atom     31.875565    12.345037    -3.855475  H        0.000000     0.000000     0.000486     0.013132     0.003894
atom      8.896699    -3.053599    38.482903  O        0.000000     0.000000    -0.002229     0.004750     0.031178
atom      9.507518    -1.740024    39.634979  H        0.000000     0.000000     0.001688    -0.000005    -0.010488
atom      7.881441    -4.004379    39.717060  H        0.000000     0.000000    -0.003162    -0.006177    -0.012193
atom     10.612192   -20.074940    -8.888793  O        0.000000     0.000000    -0.008789     0.035753    -0.001921
atom     10.677386   -18.190365    -8.993662  H        0.000000     0.000000     0.000940    -0.028329    -0.000076
atom      9.310383   -20.381384    -7.647182  H        0.000000     0.000000     0.001330    -0.006533     0.002255
atom      6.929170    21.753719    10.169196  O        0.000000     0.000000    -0.005326    -0.005064    -0.001316
atom      7.076860    23.592297     9.831205  H        0.000000     0.000000     0.003997    -0.011370     0.010578
atom      7.553834    21.419954    11.885564  H        0.000000     0.000000     0.005209     0.006578    -0.007981
atom     13.863548    -1.952456    32.221210  O        0.000000     0.000000    -0.007131     0.014142    -0.030974
atom     12.874404    -0.837673    31.059191  H        0.000000     0.000000    -0.005513    -0.013480     0.016403
atom     15.249298    -0.872139    32.652290  H        0.000000     0.000000     0.017286     0.003096     0.008802
atom      1.465525     8.876192    -1.953811  O        0.000000     0.000000    -0.004576    -0.015022    -0.021165
atom      2.457678     8.230503    -3.419773  H        0.000000     0.000000     0.000579     0.007103     0.017158
atom     -0.247986     8.342443    -2.343958  H        0.000000     0.000000     0.001518     0.009962     0.007436
atom    -14.082561    16.060425     8.816067  O        0.000000     0.000000    -0.001071    -0.031627    -0.024539
atom    -12.999295    15.422868     7.348192  H        0.000000     0.000000    -0.011762     0.028046     0.029241
atom    -13.536810    17.646997     9.519351  H        0.000000     0.000000     0.018306    -0.000475    -0.004149
atom      2.434551     8.396984    13.620640  O        0.000000     0.000000    -0.008933    -0.012607     0.011737
atom      3.581510     9.746676    13.247324  H        0.000000     0.000000     0.010074     0.016551    -0.009546
atom      2.686072     7.263702    12.209871  H        0.000000     0.000000    -0.002599    -0.001390    -0.005718
atom    -30.058151     5.825196    -2.980074  O        0.000000     0.000000    -0.009141     0.026263     0.006721
atom    -29.257154     4.280828    -2.511037  H        0.000000     0.000000     0.004876    -0.007854     0.009215
atom    -29.360090     7.313942    -1.986860  H        0.000000     0.000000     0.007165    -0.016178    -0.009502
atom     12.734624   -13.664113    26.989336  O        0.000000     0.000000    -0.009690    -0.032269     0.007917
atom     12.639899   -15.152958    28.162085  H        0.000000     0.000000     0.007325     0.022552    -0.008687
atom     12.437515   -14.458064    25.321520  H        0.000000     0.000000     0.007819     0.005533     0.007124
atom      4.712953    25.294405    -5.875438  O        0.000000     0.000000     0.002501    -0.017464     0.059576
atom      3.805259    24.973927    -7.336281  H        0.000000     0.000000    -0.021066    -0.008336    -0.048009
atom      4.017904    23.887075    -4.766215  H        0.000000     0.000000     0.019622     0.030397    -0.012003
atom      9.249078    32.052711    10.848939  O        0.000000     0.000000     0.007229    -0.009964    -0.009673
atom     10.420291    31.113028     9.739500  H        0.000000     0.000000    -0.005955     0.007386     0.003121
atom     10.370598    32.566853    12.224248  H        0.000000     0.000000    -0.002419    -0.000104    -0.002643
atom      1.680938    36.654171    24.579124  O        0.000000     0.000000    -0.000111    -0.002919    -0.021571
atom      1.969349    35.220345    23.337015  H        0.000000     0.000000    -0.001758     0.013987     0.022029
atom      3.172472    37.204403    25.481369  H        0.000000     0.000000     0.006859    -0.003137    -0.003306
atom     16.159203    16.762384    15.943086  O        0.000000     0.000000     0.003144     0.021210    -0.019030
atom     16.712618    16.098783    17.515200  H        0.000000     0.000000    -0.008379    -0.018315     0.014031
atom     14.746996    15.875167    15.167718  H        0.000000     0.000000     0.004947    -0.003389     0.013134
atom      4.655398    30.860020    18.357794  O        0.000000     0.000000     0.006700    -0.004584     0.008079
atom      4.578112    29.049227    18.619421  H        0.000000     0.000000     0.003034    -0.009387     0.000433
atom      3.915016    31.053154    16.711590  H        0.000000     0.000000    -0.006632     0.007192    -0.018972
atom     29.500277    25.499775     4.033955  O        0.000000     0.000000    -0.030296    -0.007796     0.020110
atom     28.374374    26.989403     4.181637  H        0.000000     0.000000     0.009198    -0.012008    -0.007999
atom     28.427988    23.996630     4.571393  H        0.000000     0.000000     0.017364     0.022050    -0.007685
atom      9.469316     9.532665    18.890478  O        0.000000     0.000000    -0.024108    -0.009395     0.012371
atom      7.897189     8.574353    18.630604  H        0.000000     0.000000     0.002881     0.003979     0.005668
atom     10.171791     9.598403    17.228903  H        0.000000     0.000000     0.020410     0.000529    -0.013545
atom      7.648620    23.121458     0.252024  O        0.000000     0.000000    -0.031474    -0.002900     0.039607
atom      8.931476    23.954880    -0.631399  H        0.000000     0.000000     0.024273     0.016646    -0.017613
atom      7.011718    24.243647     1.731966  H        0.000000     0.000000     0.011665    -0.015886    -0.031511
atom    -13.330435    65.729721    -2.832397  O        0.000000     0.000000     0.027259     0.015057     0.003287
atom    -11.579684    65.645004    -2.228545  H        0.000000     0.000000    -0.016185    -0.002405    -0.002262
atom    -14.007733    64.070564    -2.572054  H        0.000000     0.000000    -0.007783    -0.011175    -0.000200
atom     20.232368    10.349477   -11.567095  O        0.000000     0.000000     0.014381    -0.002427     0.015322
atom     19.316032     9.890282   -10.011451  H        0.000000     0.000000     0.008336    -0.002070    -0.012882
atom     22.027126     9.942779   -11.208808  H        0.000000     0.000000    -0.021095     0.001651    -0.003469
atom      3.709440    -2.623575   -26.021694  O        0.000000     0.000000    -0.012290     0.015454     0.000882
atom      3.911337    -3.599955   -27.544172  H        0.000000     0.000000     0.016633    -0.010645    -0.000892
atom      5.315450    -1.977578   -25.351379  H        0.000000     0.000000     0.001980    -0.004582    -0.000038
atom     15.803735    18.337326     0.229232  O        0.000000     0.000000     0.012436     0.023085    -0.007224
atom     16.794773    19.925900    -0.104887  H        0.000000     0.000000    -0.016402    -0.025532     0.009055
atom     16.475079    17.650063     1.786772  H        0.000000     0.000000     0.003366     0.003192     0.003644
atom     30.303247     9.602702    24.768700  O        0.000000     0.000000     0.013482    -0.030014    -0.002439
atom     31.323975     8.061256    24.379416  H        0.000000     0.000000    -0.011962     0.030432     0.007084
atom     30.575838     9.930917    26.574678  H        0.000000     0.000000     0.004461    -0.001560    -0.004950
atom     40.266651    -0.706104    -5.476778  O        0.000000     0.000000     0.007294     0.022243     0.035808
atom     40.398148    -2.328769    -6.204759  H        0.000000     0.000000     0.002530    -0.022122    -0.004925
atom     41.090260    -0.671989    -3.720909  H        0.000000     0.000000    -0.013227    -0.002481    -0.034733
atom     -1.190437    13.023705     4.611199  O        0.000000     0.000000    -0.029677    -0.028755     0.045586
atom     -0.204478    12.797362     3.086938  H        0.000000     0.000000     0.011555    -0.000881    -0.018073
atom     -1.639370    11.268343     5.172877  H        0.000000     0.000000     0.005633     0.029292    -0.014259
atom     17.966496    -0.055543   -12.900046  O        0.000000     0.000000    -0.005468    -0.017435    -0.003302
atom     19.531731     0.570336   -13.606433  H        0.000000     0.000000     0.005817     0.004666     0.001777
atom     17.267954     1.115325   -11.704812  H        0.000000     0.000000    -0.001173     0.008872     0.007007
atom     12.537612     9.107131    14.768684  O        0.000000     0.000000     0.001116    -0.001224    -0.004681
atom     14.095350     8.102976    14.931118  H        0.000000     0.000000    -0.000264     0.009282     0.010109
atom     13.089115    10.777349    14.107466  H        0.000000     0.000000    -0.004801    -0.007796    -0.001109
atom     14.115467   -20.551317    26.085339  O        0.000000     0.000000     0.023910    -0.027081    -0.005443
atom     13.388588   -19.331179    24.961994  H        0.000000     0.000000     0.000908     0.004017    -0.012067
atom     15.456024   -21.552010    25.132080  H        0.000000     0.000000    -0.030052     0.023741     0.016113
atom     29.590666    -8.589364     4.143517  O        0.000000     0.000000    -0.024433    -0.011205     0.002018
atom     30.840858    -7.488912     3.481518  H        0.000000     0.000000     0.019111     0.018700    -0.013148
atom     30.492500    -9.726503     5.225732  H        0.000000     0.000000     0.000280    -0.012574     0.003460
energy  -1157.159436
charge      0.000000
end
begin
lattice        23.788939        0.000000        0.000000
lattice         0.000000       23.788939        0.000000
lattice         0.000000        0.000000       23.788939
atom     18.303024    18.093166    12.011566  Na       0.000000     0.000000     0.001022     0.007635     0.003831
atom     29.914320    18.666693     7.475286  Na       0.000000     0.000000    -0.007189    -0.015280    -0.007458
atom     16.258602     0.429963     0.359077  Cl       0.000000     0.000000     0.013174    -0.004287    -0.012395
atom     22.527388    26.142666     7.520791  Cl       0.000000     0.000000     0.004539     0.003311     0.001053
atom     18.546537    18.096817    31.322149  O        0.000000     0.000000     0.000300    -0.000606    -0.003512
atom     19.921057    17.134512    30.543783  H        0.000000     0.000000     0.002698     0.005857     0.003261
atom     18.544052    19.795942    30.581612  H        0.000000     0.000000     0.000563    -0.003760    -0.000631
atom      5.830301   -10.925724    12.231567  O        0.000000     0.000000     0.010245    -0.019735     0.006311
atom      5.081926   -10.026423    10.841182  H        0.000000     0.000000    -0.007630     0.009453    -0.003539
atom      6.986564   -12.204615    11.500950  H        0.000000     0.000000    -0.002636     0.013096     0.007908
atom     20.347614   -13.459965    24.105095  O        0.000000     0.000000    -0.008352    -0.005064    -0.009413
atom     19.964798   -11.952656    23.132696  H        0.000000     0.000000     0.000118     0.004004    -0.007128
atom     19.929808   -13.048280    25.818068  H        0.000000     0.000000    -0.010652     0.000318     0.019680
atom     26.396210    -8.247396     9.449837  O        0.000000     0.000000    -0.018723     0.023841     0.009548
atom     25.256918    -8.824148     8.132269  H        0.000000     0.000000     0.001205     0.000594    -0.004826
atom     25.161699    -7.204863    10.486946  H        0.000000     0.000000     0.020012    -0.015765    -0.010645
atom     38.484249     1.560686    -9.311898  O        0.000000     0.000000     0.054414    -0.026964     0.035119
atom     38.419930     0.235058    -7.956445  H        0.000000     0.000000     0.005219     0.010012    -0.018500
atom     36.815701     1.894867    -9.637035  H        0.000000     0.000000    -0.056037     0.019037    -0.017554
atom     33.714211    -3.876132     5.195909  O        0.000000     0.000000    -0.011242    -0.002487    -0.005539
atom     34.845783    -3.269704     6.501184  H        0.000000     0.000000     0.010096     0.003942    -0.003464
atom     33.309895    -2.400640     4.175009  H        0.000000     0.000000     0.002451    -0.002579    -0.001274
atom     11.582692     3.041707    30.269848  O        0.000000     0.000000    -0.001525     0.010857     0.020795
atom      9.787183     3.244059    30.588394  H        0.000000     0.000000    -0.000829    -0.007693     0.001466
atom     11.760000     2.924231    28.462502  H        0.000000     0.000000    -0.001669     0.004860    -0.021829
atom     18.907076    10.953750    29.227028  O        0.000000     0.000000     0.013031     0.000742    -0.002120
atom     19.016775     9.421231    30.263695  H        0.000000     0.000000    -0.005832     0.002003    -0.000447
atom     17.241337    11.698185    29.323082  H        0.000000     0.000000    -0.006188    -0.000851     0.000774
atom     13.955804    19.641983    12.063070  O        0.000000     0.000000    -0.025115    -0.011538     0.019418
atom     13.459268    20.572765    10.553617  H        0.000000     0.000000     0.003809     0.003456    -0.000318
atom     12.397021    19.633263    13.170537  H        0.000000     0.000000     0.025012     0.006154    -0.014363
atom    -11.363368    19.283276    23.829844  O        0.000000     0.000000    -0.010741    -0.026525     0.004524
atom    -10.125764    20.579218    23.729683  H        0.000000     0.000000     0.013015     0.016464     0.005760
atom    -11.987116    19.313967    25.563845  H        0.000000     0.000000     0.002747     0.007312    -0.005783
atom     17.912399    29.522594    40.027233  O        0.000000     0.000000     0.008310     0.023915    -0.027688
atom     18.302378    29.573545    41.769276  H        0.000000     0.000000    -0.005316    -0.008691     0.017358
atom     17.046268    28.028898    39.481716  H        0.000000     0.000000    -0.006741    -0.011016     0.007359
atom     22.774086    18.421091    -3.245108  O        0.000000     0.000000    -0.012720     0.000860    -0.011955
atom     22.168653    20.132128    -3.619044  H        0.000000     0.000000     0.007622    -0.004475     0.008184
atom     23.729380    18.321716    -1.708447  H        0.000000     0.000000     0.001379     0.007152     0.006888
atom      3.776157   -18.493345     8.243517  O        0.000000     0.000000    -0.020359    -0.001157    -0.042234
atom      2.196448   -19.571384     7.905266  H        0.000000     0.000000     0.028934     0.025122     0.005787
atom      4.270061   -17.788488     6.486306  H        0.000000     0.000000    -0.011595    -0.013972     0.032197
atom     19.031666    -9.218247    21.105242  O        0.000000     0.000000     0.013067     0.012377     0.005176
atom     20.054819    -7.717829    21.453348  H        0.000000     0.000000     0.006870    -0.007086    -0.008983
atom     17.652407    -8.953742    22.252762  H        0.000000     0.000000    -0.017155    -0.006386     0.009483
atom     18.172989    -0.676808    29.368567  O        0.000000     0.000000     0.002091    -0.006747     0.013619
atom     17.992632    -0.515506    27.558884  H        0.000000     0.000000    -0.008039     0.002853    -0.005445
atom     19.448631     0.545867    29.897934  H        0.000000     0.000000     0.000140    -0.004848     0.001333
atom     31.253965    11.861043    28.422928  O        0.000000     0.000000     0.004983    -0.042659    -0.011345
atom     29.971912    10.394361    28.034481  H        0.000000     0.000000     0.037909     0.024369     0.007285
atom     33.013073    11.159145    27.944128  H        0.000000     0.000000    -0.032309     0.007036     0.010953
atom    -10.360566     7.456032    32.104370  O        0.000000     0.000000     0.019916     0.029763     0.023001
atom     -8.642144     7.404615    32.832520  H        0.000000     0.000000    -0.014012    -0.005775    -0.013128
atom    -10.838514     5.788893    31.639818  H        0.000000     0.000000    -0.003848    -0.028535    -0.008976
atom      3.043741    21.845604    29.132975  O        0.000000     0.000000    -0.046216    -0.002599     0.008246
atom      1.448784    21.460632    28.176884  H        0.000000     0.000000     0.032886     0.006275     0.009173
atom      2.210978    22.546629    30.664227  H        0.000000     0.000000     0.016324    -0.004119    -0.018360
atom     -6.187218    13.461177    11.553218  O        0.000000     0.000000     0.007391    -0.021172    -0.045697
atom     -4.872502    12.373627    12.272845  H        0.000000     0.000000    -0.002999     0.000874     0.008579
atom     -6.135700    12.833824     9.746918  H        0.000000     0.000000    -0.003341     0.017942     0.034406
atom     -4.749695    30.807095     8.849922  O        0.000000     0.000000     0.003021     0.002667     0.014618
atom     -3.662055    29.296740     8.801765  H        0.000000     0.000000    -0.005400     0.007518    -0.004777
atom     -4.271786    31.695351    10.415624  H        0.000000     0.000000     0.001784    -0.006016    -0.008194
atom     -1.117214    24.730995     1.486312  O        0.000000     0.000000    -0.016423     0.002092    -0.011410
atom     -0.958752    25.509613     3.134750  H        0.000000     0.000000    -0.003238    -0.000424     0.003809
atom     -2.924260    24.833588     1.024236  H        0.000000     0.000000     0.015558    -0.003061     0.008397
atom     20.772251    23.597576    18.430534  O        0.000000     0.000000     0.025108    -0.009450    -0.014937
atom     20.308594    23.191311    16.683102  H        0.000000     0.000000    -0.005377     0.004114     0.010586
atom     19.279730    23.709997    19.404461  H        0.000000     0.000000    -0.020336     0.000213     0.005213
atom      2.493485    42.242382    16.559750  O        0.000000     0.000000    -0.000320    -0.011440     0.020091