################################################################################
# Symmetry function scaling data.
################################################################################
# Col  Name     Description
################################################################################
# 1    e_index  Element index.
# 2    sf_index Symmetry function index.
# 3    sf_min   Symmetry function minimum.
# 4    sf_max   Symmetry function maximum.
# 5    sf_mean  Symmetry function mean.
# 6    sf_sigma Symmetry function sigma.
#########################################################################################################################
#        1          2                        3                        4                        5                        6
#  e_index   sf_index                   sf_min                   sf_max                  sf_mean                 sf_sigma
#########################################################################################################################
         1          1   7.7549338647819321E-03   1.0337349556218745E-01   3.2976280102570088E-02   6.5625756741462269E-03
         1          2   7.3811456063844011E-02   2.4692407794644775E-01   1.5502658819777021E-01   9.4041235584329235E-03
         1          3   0.0000000000000000E+00   1.5209212266993302E-02   1.5962512470942964E-05   1.4665351736330113E-04
         1          4   0.0000000000000000E+00   3.7101613972899461E-02   2.0530018820367780E-04   7.6089112870050813E-04
         1          5   6.9004436524164631E-02   4.2426873189624131E-01   1.9013408168496437E-01   3.0858863770694960E-02
         1          6   2.3650550340734786E-01   5.1026337657524490E-01   3.5786273791514578E-01   3.3844213401131557E-02
         1          7   0.0000000000000000E+00   9.6744571186416439E-02   3.9163519708438271E-04   1.5842414524071459E-03
         1          8   0.0000000000000000E+00   1.6449819844373167E-01   2.6153573215078468E-03   7.7736532194186674E-03
         1          9   2.3961757114251703E-01   1.0419710369326853E+00   5.2978068977578241E-01   1.0777027642595642E-01
         1         10   2.2994605021667897E-01   6.1753673215318849E-01   3.9391301194938066E-01   8.1081055609215441E-02
         1         11   0.0000000000000000E+00   2.2643772243302054E-01   4.2737316476225999E-03   1.0619935610783175E-02
         1         12   0.0000000000000000E+00   2.6831910710411011E-01   1.3615005032121080E-02   3.3272396682793456E-02
         1         13   1.8113278051054715E-01   1.6793972955150365E+00   9.0118625722392431E-01   1.9456353395197365E-01
         1         14   6.6950430593678778E-02   7.9002705434426179E-01   3.7432455725607350E-01   1.0110199295494203E-01
         1         15   0.0000000000000000E+00   3.4629863690360091E-01   2.0262478359733844E-02   3.8435469763682270E-02
         1         16   0.0000000000000000E+00   3.7082041111116393E-01   3.1157422098439507E-02   6.1184988441537934E-02
         1         17   1.3553708981177939E-01   2.0172003183678311E+00   1.1026190529875743E+00   2.0889608360091513E-01
         1         18   4.4117589701607347E-02   9.7978243905857831E-01   4.9130539435283399E-01   1.1940750311544721E-01
         1         19   0.0000000000000000E+00   4.4152749410764475E-01   4.2394471013983401E-02   6.6644568743557217E-02
         1         20   0.0000000000000000E+00   4.0575964746724380E-01   3.8447070339376548E-02   5.6419018309950546E-02
         1         21   2.4126644760185667E-01   1.7778525601036799E+00   1.0533335876232917E+00   1.7026817049123202E-01
         1         22   6.7524269545773563E-02   9.7732689702063447E-01   5.5916517728317128E-01   9.9557634970424025E-02
         1         23   0.0000000000000000E+00   3.4697310029412454E-01   4.2345431854787952E-02   5.6498821811034161E-02
         1         24   0.0000000000000000E+00   2.6627073472088886E-01   3.5509027523091249E-02   4.2829181946915346E-02
         1         25   2.4492589506812396E-01   1.2084880052328208E+00   7.9179546597513784E-01   1.1206852747038265E-01
         1         26   8.0028958391058821E-02   6.9825549901781159E-01   4.1710362442683174E-01   6.6927166889331896E-02
         1         27   0.0000000000000000E+00   2.1113258761322001E-01   2.5224867634479581E-02   2.8890754271295734E-02
         1         28   0.0000000000000000E+00   1.9363558181238774E-01   2.6671286500752921E-02   2.9963323566331738E-02
         1         29   1.7925537010913017E-01   6.8447891953753093E-01   4.3755490010526882E-01   5.9657479221961483E-02
         1         30   4.2159286383257236E-02   3.5796259484395937E-01   2.1583788574792429E-01   3.4815956638455603E-02
         1         31   0.0000000000000000E+00   1.2167257661637235E-01   1.2547247659298374E-02   1.3764328672994859E-02
         1         32   0.0000000000000000E+00   1.0715283364537923E-01   1.4468691124388672E-02   1.5235576425423197E-02
         1         33   6.9444985888186442E-02   2.6064777843931430E-01   1.6864679412851447E-01   2.3007139802065094E-02
         1         34   2.3845509623914990E-02   1.4597230837702665E-01   8.1735456074327209E-02   1.3963569178651710E-02
         1         35   0.0000000000000000E+00   4.8324967386538985E-02   5.2915329437207169E-03   5.6879369002647102E-03
         1         36   0.0000000000000000E+00   3.8323694292465960E-02   5.4726978395411244E-03   5.6042759723920373E-03
         1         37   1.4937732472454487E-02   6.5099393603994207E-02   4.2219562119126038E-02   5.9272641396772296E-03
         1         38   5.3909681798462381E-03   3.7904974508991288E-02   2.0812145006158769E-02   3.8755196039010412E-03
         1         39   0.0000000000000000E+00   1.0925414998555497E-02   1.4577830474370383E-03   1.5203586533317132E-03
         1         40   0.0000000000000000E+00   9.4154042304088765E-03   1.3669043322526344E-03   1.4083465594998952E-03
         1         41   7.1414554204253728E-04   6.7417754631246968E-02   2.2326960887829140E-02   8.1199043206513465E-03
         1         42   5.9506863830469650E-03   9.9511199282861854E-02   4.1701397343801599E-02   1.2758937412261121E-02
         1         43   0.0000000000000000E+00   2.0784559338551094E-02   8.8614719429861626E-04   1.4363620003699676E-03
         1         44   0.0000000000000000E+00   2.0155238703515654E-02   1.2785264708904103E-03   2.3608926271847003E-03
         1         45   3.8774028967327199E-04   3.5611967604223423E-02   1.4101989538760457E-02   5.8005334685990104E-03
         1         46   0.0000000000000000E+00   1.7135314117890117E-02   7.8856842045538873E-04   1.4188604531632546E-03
         1         47   0.0000000000000000E+00   1.9251677187316771E-02   1.2775637149936995E-03   2.3777569425430518E-03
         1         48   0.0000000000000000E+00   8.8024956194456818E-04   1.0853644851737811E-05   4.4004098456603636E-05
         1         49   0.0000000000000000E+00   3.3427726999505380E-03   4.1917608998998344E-05   1.4566117843856441E-04
         1         50   0.0000000000000000E+00   1.5141524717592252E-03   4.3762948949552552E-06   3.4409769795380416E-05
         1         51   2.8628120145804603E-03   1.5515660067656592E-01   5.8939480599632998E-02   1.7985871853077255E-02
         1         52   4.7352411778073804E-02   2.9239441452302523E-01   1.5221482208626255E-01   3.2137863556488809E-02
         1         53   0.0000000000000000E+00   2.8071008350848081E-02   1.9618208819585300E-03   2.8027563868410505E-03
         1         54   0.0000000000000000E+00   2.9876449595018551E-02   3.1211226725675486E-03   4.3898532150865015E-03
         1         55   7.9698069823608394E-04   3.4881867360506552E-02   1.3603750442704657E-02   4.1166021190283267E-03
         1         56   0.0000000000000000E+00   3.2534220077534037E-02   2.6575075212848425E-03   4.1700442365072100E-03
         1         57   0.0000000000000000E+00   9.4993531071663282E-03   9.1652124717342528E-04   1.1465953207548292E-03
         1         58   0.0000000000000000E+00   1.5605446227928523E-03   1.8944671341516494E-05   7.7708046834703483E-05
         1         59   0.0000000000000000E+00   6.1915169212565912E-03   1.1394921104004303E-04   3.5114254230411034E-04
         1         60   0.0000000000000000E+00   1.6699264267498407E-03   5.8650273964453085E-06   4.3812842167037259E-05
         1         61   7.6091963438352020E-05   1.7695873267487481E-02   4.1810676365340157E-03   1.9118946722962900E-03
         1         62   2.1666130873418941E-04   3.5562046542502647E-02   1.1626457896823433E-02   5.3918276973476884E-03
         1         63   0.0000000000000000E+00   7.4415513022098425E-03   8.6210879512991777E-05   1.8379926288806872E-04
         1         64   0.0000000000000000E+00   7.8949889119266144E-03   3.2943146333504143E-04   7.7624933661953272E-04
         1         65   2.1552525866100566E-05   2.1933521896478948E-02   7.3783067110055837E-03   4.4163952277782572E-03
         1         66   0.0000000000000000E+00   1.3783816568338981E-02   7.8974600844374695E-05   2.2085358933058061E-04
         1         67   0.0000000000000000E+00   1.5432812819605724E-02   7.6387567678669560E-04   1.7873723088943324E-03
         1         68   0.0000000000000000E+00   2.9989319309553915E-04   9.4276039253762610E-07   4.9623484984995752E-06
         1         69   0.0000000000000000E+00   8.2766627885904373E-04   4.6703910462435026E-06   2.2049106252072070E-05
         1         70   0.0000000000000000E+00   2.3472643319640704E-04   6.0427004807134830E-07   4.7424975964453124E-06
         1         71   1.8754737284558728E-03   8.0766864027930291E-02   3.2973487357723950E-02   9.3212204000912655E-03
         1         72   3.4248441769477285E-02   1.8985742443613185E-01   1.0597633803719649E-01   2.1527016792218467E-02
         1         73   0.0000000000000000E+00   1.1168952808801508E-02   8.1371147576611189E-04   1.0948207074250047E-03
         1         74   0.0000000000000000E+00   1.4417854639101170E-02   1.7389419894901451E-03   2.2685043771703403E-03
         1         75   2.7654458361332009E-04   1.3326270556786271E-02   5.6192778443915148E-03   1.7064734258175958E-03
         1         76   0.0000000000000000E+00   1.5364423541885750E-02   1.4657129792956288E-03   2.2432839737033649E-03
         1         77   0.0000000000000000E+00   4.2811610655429872E-03   3.3445336708654721E-04   3.9515731354728832E-04
         1         78   0.0000000000000000E+00   4.5298930338688961E-04   5.8578504911194650E-06   2.5190870675332309E-05
         1         79   0.0000000000000000E+00   2.7488232483885524E-03   5.5951115545114180E-05   1.6516799959288112E-04
         1         80   0.0000000000000000E+00   2.9741528335490382E-04   1.5379582315857480E-06   1.0714927193147736E-05
         2          1   1.5401585253094571E-01   4.4133633469913180E-01   3.1005317639554042E-01   1.4649766295386082E-02
         2          2   5.6886328173614069E-08   1.8106134096112446E-03   1.5290367737109779E-04   1.0993701740893410E-04
         2          3   0.0000000000000000E+00   8.1642048808953527E-03   1.3302759134372439E-04   3.3418050538795572E-04
         2          4   0.0000000000000000E+00   2.7695930875470221E-04   1.5742341150946158E-06   5.6030152788385238E-06
         2          5   3.9017960950492458E-01   9.4494467704246510E-01   7.1572547583029156E-01   5.0348300867854807E-02
         2          6   7.9478843334650723E-06   2.8711871303012428E-02   4.6146600290206735E-03   2.6169107097287953E-03
         2          7   0.0000000000000000E+00   6.4933396283881950E-02   2.3387583237625344E-03   5.0838066911611038E-03
         2          8   0.0000000000000000E+00   5.8909030512480200E-03   7.4392632527677834E-05   1.9529847812137238E-04
         2          9   4.4833423835585795E-01   1.1902280192145305E+00   7.8782602389876122E-01   1.2935836096424189E-01
         2         10   4.1775704849352294E-04   1.7639029041531454E-01   5.4993443146340922E-02   2.3600874083686274E-02
         2         11   0.0000000000000000E+00   2.2368815547194457E-01   1.6096596968108723E-02   3.0984642162654390E-02
         2         12   0.0000000000000000E+00   5.2399421000118677E-02   1.3918154518439768E-03   2.8670262485510981E-03
         2         13   1.6053013655728379E-01   1.4165568412956036E+00   7.4864911451214700E-01   1.7858350282413624E-01
         2         14   8.3559778679621072E-03   5.8161562191562777E-01   2.6748547331834926E-01   8.1355888128262652E-02
         2         15   0.0000000000000000E+00   4.3321622680760474E-01   4.4361138713741873E-02   7.7037018374903982E-02
         2         16   0.0000000000000000E+00   1.8789359579529222E-01   1.0438760825970155E-02   1.7625424283870154E-02
         2         17   1.3274923918582832E-01   1.7831642438780420E+00   9.8261078870566798E-01   2.0632557059590440E-01
         2         18   6.4878123831784915E-02   1.0326471154668171E+00   5.6842300836714355E-01   1.1955538771804648E-01
         2         19   0.0000000000000000E+00   5.0560730702105150E-01   5.2354422648796334E-02   8.1995022949747878E-02
         2         20   0.0000000000000000E+00   3.0492356908023566E-01   3.2334528299144370E-02   4.5820838972082507E-02
         2         21   3.3899642566233856E-01   1.8751644587192975E+00   1.1183303545663428E+00   1.7834388433519538E-01
         2         22   1.8088789875628566E-01   1.0159657261417423E+00   6.0763445438958208E-01   1.0662872848914144E-01
         2         23   0.0000000000000000E+00   3.0363702283342570E-01   3.3956947438353598E-02   4.4923124399465150E-02
         2         24   0.0000000000000000E+00   3.3133203672997319E-01   4.4336279359573738E-02   5.3336647249797295E-02
         2         25   3.3843879970077850E-01   1.2341582248891680E+00   8.3420724885366349E-01   1.1337229427078536E-01
         2         26   1.2657163846955233E-01   6.5911784360664760E-01   4.1140783029065808E-01   6.6038359237226812E-02
         2         27   0.0000000000000000E+00   2.0882231162663006E-01   2.0981087555537244E-02   2.4796380372109135E-02
         2         28   0.0000000000000000E+00   1.9011842388379646E-01   3.1444200264914422E-02   3.3040304243487272E-02
         2         29   1.9612942798738986E-01   6.4480714455240429E-01   4.3167577149584857E-01   5.7599183254771300E-02
         2         30   7.5422709092719406E-02   3.5931053305237592E-01   2.1159199346392921E-01   3.6475986745366659E-02
         2         31   0.0000000000000000E+00   1.1863519347844557E-01   1.3085304172446514E-02   1.4631447944757500E-02
         2         32   0.0000000000000000E+00   1.0489397431299084E-01   1.4893759043643278E-02   1.4909007660276528E-02
         2         33   7.1608764049453599E-02   2.5365272535318717E-01   1.6347091214865442E-01   2.2813824235707398E-02
         2         34   2.6387997869495736E-02   1.4155806864701692E-01   8.0794415879427137E-02   1.5550663252373531E-02
         2         35   0.0000000000000000E+00   4.6134919502973645E-02   5.6020901419657496E-03   5.8547781405432339E-03
         2         36   0.0000000000000000E+00   4.0805223747738317E-02   5.4755449728289135E-03   5.5130701438397284E-03
         2         37   1.8908681475532464E-02   6.5118359839182252E-02   4.1624290012317537E-02   6.0656619506936982E-03
         2         38   4.5510615195292039E-03   3.6763622118111142E-02   2.0267379079325989E-02   3.9519280337479024E-03
         2         39   0.0000000000000000E+00   1.2460034491210440E-02   1.4316249624127405E-03   1.4758347972798824E-03
         2         40   0.0000000000000000E+00   1.0895681225152604E-02   1.3908372100639938E-03   1.4232241281073395E-03
         2         41   2.9515411598935674E-02   1.5641271725630110E-01   8.4319612563106341E-02   2.0256394342085142E-02
         2         42   1.5113523675569860E-03   5.5641895067666702E-02   2.1329011987089454E-02   6.8270253400979615E-03
         2         43   0.0000000000000000E+00   3.2851752484960972E-02   3.4211205281655735E-03   5.6910999572449507E-03
         2         44   0.0000000000000000E+00   1.1448525997744045E-02   8.7735933601157943E-04   1.2210005599784766E-03
         2         45   2.9377591452152493E-05   5.0686738240864667E-03   1.3754810130330529E-03   6.2181632099426196E-04
         2         46   0.0000000000000000E+00   5.8052541986934464E-03   4.3748481533797056E-04   7.3043404465099793E-04
         2         47   0.0000000000000000E+00   1.4062185387694603E-03   1.2751247238130300E-04   1.6609593566770380E-04
         2         48   0.0000000000000000E+00   2.0495470161189335E-03   3.0151341269609363E-05   1.2634338535771965E-04
         2         49   0.0000000000000000E+00   1.7829872655295838E-03   3.8828883874488921E-05   1.0746723640119482E-04
         2         50   0.0000000000000000E+00   3.2114134713334333E-04   1.7596753825954270E-06   1.0122271753387463E-05
         2         51   2.2520046829944837E-02   2.3188496998632208E-01   1.0959660686695784E-01   2.6533880078174782E-02
         2         52   7.2818942886322046E-03   1.9816655375440306E-01   8.9493947938770996E-02   2.5131383908946724E-02
         2         53   0.0000000000000000E+00   4.1861952885317980E-02   3.4710313553148889E-03   5.1368412317294261E-03
         2         54   0.0000000000000000E+00   3.5140382623895010E-02   3.5108105883226697E-03   4.8147067268688093E-03
         2         55   1.2443967388046107E-04   1.2481639441470000E-02   3.9075360964973436E-03   1.5718326843074068E-03
         2         56   0.0000000000000000E+00   1.9082384502178421E-02   1.6311735492833389E-03   2.5031052632965602E-03
         2         57   0.0000000000000000E+00   3.4393843551738424E-03   3.4645491808888459E-04   4.1230624851412609E-04
         2         58   0.0000000000000000E+00   2.3782295113222384E-03   3.4239758506130831E-05   1.4607480685345162E-04
         2         59   0.0000000000000000E+00   4.5788617254311536E-03   1.2326254716258582E-04   3.3287796265362980E-04
         2         60   0.0000000000000000E+00   6.6958571456743441E-04   3.4696679322443141E-06   2.1704832127376584E-05
         2         61   4.2537794916935080E-03   4.5477693134854745E-02   2.2180181166747255E-02   6.6158720504584960E-03
         2         62   2.2972374336894779E-04   1.1592691817860722E-02   4.5057545883203506E-03   1.5654454617227997E-03
         2         63   0.0000000000000000E+00   1.1754900067154834E-02   1.0172700752815835E-03   1.8139366183307036E-03
         2         64   0.0000000000000000E+00   3.5478330098028051E-03   1.5006870511799706E-04   2.4593685279438999E-04
         2         65   3.6581396909747276E-07   4.8032898987905256E-04   9.7928036538173001E-05   6.2316016539834407E-05
         2         66   0.0000000000000000E+00   6.6295763406071543E-04   3.4187229784390757E-05   6.8176170515581356E-05
         2         67   0.0000000000000000E+00   1.9078191552752112E-04   7.3554167282959682E-06   1.2260412943514348E-05
         2         68   0.0000000000000000E+00   5.7511319347750445E-04   5.1124201525489898E-06   2.3383360606129040E-05
         2         69   0.0000000000000000E+00   2.4378992025590344E-04   2.9392119428559269E-06   1.0088429889352120E-05
         2         70   0.0000000000000000E+00   3.5632947120163269E-05   1.2838203139869102E-07   7.5546257583002430E-07
         2         71   4.1302244816456878E-03   1.0856496172038363E-01   4.8767943327028634E-02   1.2971857011578885E-02
         2         72   5.4124194064150422E-03   1.4357881597492650E-01   6.7697112790918959E-02   1.8687257358375512E-02
         2         73   0.0000000000000000E+00   2.0472347971606096E-02   1.1081231928109594E-03   1.4969640708408477E-03
         2         74   0.0000000000000000E+00   2.8220746945474644E-02   2.4683607795759756E-03   3.5323473235257048E-03
         2         75   7.5688752819824651E-05   5.5671016494298316E-03   1.8848953755306553E-03   7.2108892338214336E-04
         2         76   0.0000000000000000E+00   1.0247033687435117E-02   9.3202652675975102E-04   1.3796675649260912E-03
         2         77   0.0000000000000000E+00   1.4756565748765397E-03   1.5478090354125500E-04   1.7544607709937297E-04
         2         78   0.0000000000000000E+00   5.0357454333923798E-04   7.6930491797880046E-06   3.1951963630521846E-05
         2         79   0.0000000000000000E+00   2.1714132078868905E-03   6.3450551338994137E-05   1.6971524197484616E-04
         2         80   0.0000000000000000E+00   2.4823950716546542E-04   1.1836554777645465E-06   7.9631546788934101E-06
         3          1   1.9039145121312731E-05   2.1782315644577090E-02   4.5776554381261501E-04   8.6301334996912024E-04
         3          2   1.4453475331144937E-05   1.1240822794923104E-02   1.9074518439497572E-03   1.0373426145428059E-03
         3          3   0.0000000000000000E+00   2.2974944673119712E-05   5.1966535883343562E-07   2.0645016034315140E-06
         3          4   0.0000000000000000E+00   2.4773745084039098E-03   4.0805103455263893E-05   9.8033643787175223E-05
         3          5   9.7411522978675289E-04   1.6797195113123944E-01   1.1231132899400177E-02   8.6570639650045550E-03
         3          6   7.5833379617178392E-04   1.0228269234045367E-01   3.3534914314782428E-02   1.3945255877733280E-02
         3          7   0.0000000000000000E+00   8.7511641239404166E-04   2.7985282162543934E-05   9.0768456408185316E-05
         3          8   0.0000000000000000E+00   2.8904436156407379E-02   1.0827736670119042E-03   1.9350101563193479E-03
         3          9   1.8842473836345703E-02   5.2900710985065036E-01   1.2256009793849035E-01   4.9761223516398299E-02
         3         10   1.4912397069727018E-02   4.8175818029410650E-01   2.3080537847822577E-01   7.1311885929764562E-02
         3         11   0.0000000000000000E+00   1.2367823234691350E-02   6.1366669225725045E-04   1.5443978414701994E-03
         3         12   0.0000000000000000E+00   1.3911037651495056E-01   1.1524735064504767E-02   1.6171567916820093E-02
         3         13   1.5360040028269897E-01   1.1328726812807395E+00   5.8107797517585724E-01   1.5175997439986305E-01
         3         14   1.1153143623036074E-01   1.0142946741214991E+00   6.3608410093361967E-01   1.4216434255915494E-01
         3         15   0.0000000000000000E+00   6.6116808625782716E-02   5.7291378807139077E-03   1.0505704802985518E-02
         3         16   0.0000000000000000E+00   3.2000302146702797E-01   4.9903165965469468E-02   5.6962936745018830E-02
         3         17   4.8822599874569378E-01   1.9053565262637764E+00   1.2157690159171932E+00   2.1938547773351708E-01
         3         18   2.0629975236460249E-01   1.1583502334885545E+00   7.5069794928736500E-01   1.3703939085806566E-01
         3         19   0.0000000000000000E+00   1.6382446584181315E-01   2.4148830628145573E-02   3.0269348016313674E-02
         3         20   0.0000000000000000E+00   4.9901502134861109E-01   9.0819436198036591E-02   8.6242980733719027E-02
         3         21   5.9088671134147064E-01   1.8206843860620026E+00   1.2143626936093439E+00   1.7737462202108484E-01
         3         22   2.0608959865588605E-01   8.2881791579268804E-01   4.8690081021487408E-01   9.2304145658517842E-02
         3         23   0.0000000000000000E+00   2.1243876513249890E-01   4.9124943626716475E-02   4.1117796391971613E-02
         3         24   0.0000000000000000E+00   3.0987477464324342E-01   7.6548198119269328E-02   6.0250683529891380E-02
         3         25   3.4353679367369933E-01   1.1733754673259151E+00   7.2338707777477140E-01   1.0877409281521579E-01
         3         26   8.9828969887273930E-02   5.7749575112889251E-01   3.0084295852936072E-01   6.3412866581951055E-02
         3         27   0.0000000000000000E+00   1.6485307635982296E-01   5.1362019923025977E-02   3.2709108949632040E-02
         3         28   0.0000000000000000E+00   1.6171943240493644E-01   4.1335867543600129E-02   2.7088288105959472E-02
         3         29   1.6774811804639414E-01   5.4059455003428825E-01   3.5982416042372439E-01   6.0793573076975083E-02
         3         30   6.5021307875941070E-02   3.2152963532104140E-01   1.8762714802438643E-01   4.1024484491862273E-02
         3         31   0.0000000000000000E+00   9.7391341263143208E-02   2.9095783607248193E-02   1.8028542840386599E-02
         3         32   0.0000000000000000E+00   8.2963602252924512E-02   2.3015908703418242E-02   1.5707922590047177E-02
         3         33   7.5683694560201825E-02   2.3423817487125581E-01   1.5174813238166815E-01   2.6544682863972800E-02
         3         34   2.8697365683466893E-02   1.3083605191156586E-01   8.0327073980126076E-02   1.6471403079859608E-02
         3         35   0.0000000000000000E+00   3.4836542206176338E-02   9.3772159961903589E-03   6.3700490511845427E-03
         3         36   0.0000000000000000E+00   3.6334770391740406E-02   1.0800736744738587E-02   7.3206919216222540E-03
         3         37   1.8442457086103540E-02   6.5655542891187649E-02   4.1805627446529776E-02   7.1011206286018501E-03
         3         38   6.1272251420352534E-03   3.4839495914113762E-02   2.0527738996211690E-02   4.0700252069507592E-03
         3         39   0.0000000000000000E+00   7.2472378086297449E-03   1.7928170837783566E-03   1.4316010235999582E-03
         3         40   0.0000000000000000E+00   1.0346928382269319E-02   2.9108273992711742E-03   1.9514914887018369E-03
         3         41   1.1155099878422236E-03   1.9922036983160946E-02   7.2102139703830491E-03   2.9541509217931193E-03
         3         42   1.4372621559660783E-03   3.4813219426905219E-02   1.2727162557774620E-02   5.2031310164851801E-03
         3         43   0.0000000000000000E+00   2.3697596081822237E-03   3.5172263348416129E-04   3.9059734281964709E-04
         3         44   0.0000000000000000E+00   6.2363432854441190E-03   1.0307390433021652E-03   9.8896803564611042E-04
         3         45   2.5699378090957812E-04   1.5372633469630650E-02   5.5081131995588757E-03   2.5126314404517276E-03
         3         46   0.0000000000000000E+00   2.3556810903121268E-03   3.0860136983500294E-04   3.9074489921904509E-04
         3         47   0.0000000000000000E+00   4.5801753548120614E-03   8.6199698744264552E-04   8.0609152165890931E-04
         3         48   0.0000000000000000E+00   6.9288285557997704E-05   2.1803982181513894E-06   6.5305912733885075E-06
         3         49   0.0000000000000000E+00   7.9942824412820249E-04   4.2712738278812312E-05   7.5361400135653614E-05
         3         50   0.0000000000000000E+00   9.0439716571345948E-04   2.4975165917785557E-05   7.8931243814387456E-05
         3         51   7.8450929700938071E-03   8.3532864318817457E-02   3.3626141132298518E-02   1.0862183803394165E-02
         3         52   2.2671553539649187E-02   1.6650596554912586E-01   8.6097808157947431E-02   2.3440807495085321E-02
         3         53   0.0000000000000000E+00   7.2290221372133126E-03   1.3573620036286709E-03   1.2698375973898618E-03
         3         54   0.0000000000000000E+00   1.6027324765764010E-02   3.4391374731545096E-03   2.8631009627017139E-03
         3         55   8.6829056526042568E-04   2.3408725734029696E-02   9.3228935571651825E-03   3.8512427102270473E-03
         3         56   0.0000000000000000E+00   9.6720605200583155E-03   1.5379767837727170E-03   1.6229370484629286E-03
         3         57   0.0000000000000000E+00   6.5240629263929508E-03   1.4621945272427688E-03   1.1452841223460733E-03
         3         58   0.0000000000000000E+00   1.6445308686253255E-04   6.4054685440630042E-06   1.8626262132081399E-05
         3         59   0.0000000000000000E+00   2.5246617900300671E-03   1.9598059713379895E-04   3.2037152954084082E-04
         3         60   0.0000000000000000E+00   1.3444828883171171E-03   3.2285381175866600E-05   1.0500959526201651E-04
         3         61   2.5674897329075721E-05   3.4070397501703635E-03   4.4295193976446858E-04   2.6013077689453581E-04
         3         62   3.6579364090863527E-05   4.1953428848862558E-03   1.1681339353498868E-03   6.0481820460642091E-04
         3         63   0.0000000000000000E+00   1.2699765723828461E-04   9.9903302469039787E-06   1.5547876572281682E-05
         3         64   0.0000000000000000E+00   1.1174725334424016E-03   7.7791345061215794E-05   9.5154935091678599E-05
         3         65   5.2153316815464081E-06   2.3878756954487075E-03   7.5451453613745493E-04   4.0237112860364314E-04
         3         66   0.0000000000000000E+00   1.8818846183387772E-04   1.1698892209052643E-05   1.9812684006025712E-05
         3         67   0.0000000000000000E+00   8.7689943191085853E-04   1.0562069693346761E-04   1.2295765012085679E-04
         3         68   0.0000000000000000E+00   2.7180197880949234E-06   6.4997281674259451E-08   2.4441984825173363E-07
         3         69   0.0000000000000000E+00   3.2354039182925793E-05   8.7196908607062440E-07   2.2787811425459751E-06
         3         70   0.0000000000000000E+00   2.0752929087243204E-04   3.2607957470530201E-06   1.1480303920526964E-05
         3         71   5.9115537312041007E-03   5.2323184258267499E-02   2.1826700802993891E-02   6.4253170145059961E-03
         3         72   1.9603256055927106E-02   1.2281089416993621E-01   6.7511281121140215E-02   1.6574042534015045E-02
         3         73   0.0000000000000000E+00   3.2736514488631765E-03   7.2648203111168124E-04   6.2479494759782532E-04
         3         74   0.0000000000000000E+00   8.9219448413436972E-03   1.9105627244871458E-03   1.5091420838758000E-03
         3         75   2.5401934006968776E-04   8.7626409544754088E-03   3.3081590626570538E-03   1.3155873781837274E-03
         3         76   0.0000000000000000E+00   5.2792480263888905E-03   9.5567702832209461E-04   9.3335649592273320E-04
         3         77   0.0000000000000000E+00   1.8237096434341761E-03   4.9747495711980531E-04   3.4197527461760812E-04