################################################################################
# Symmetry function scaling data.
################################################################################
# Col  Name     Description
################################################################################
# 1    e_index  Element index.
# 2    sf_index Symmetry function index.
# 3    sf_min   Symmetry function minimum.
# 4    sf_max   Symmetry function maximum.
# 5    sf_mean  Symmetry function mean.
# 6    sf_sigma Symmetry function sigma.
#########################################################################################################################
#        1          2                        3                        4                        5                        6
#  e_index   sf_index                   sf_min                   sf_max                  sf_mean                 sf_sigma
#########################################################################################################################
         1          1   9.3073656550365976E-03   7.7111173154335952E-02   3.2977018794988565E-02   6.3879145700654538E-03
         1          2   1.0356192563329362E-01   2.0508608158884370E-01   1.5572342911046913E-01   9.3280208828161251E-03
         1          3   0.0000000000000000E+00   1.4296577634765141E-02   1.2373468436621910E-05   1.1589896060702784E-04
         1          4   0.0000000000000000E+00   2.1083174573925261E-02   2.1208058458020018E-04   7.7855864821444062E-04
         1          5   7.4616859104098709E-02   4.1742309230933239E-01   1.8841585750661075E-01   2.9349761657877040E-02
         1          6   2.8190504229993113E-01   5.2719802232910862E-01   3.5714295408438246E-01   3.3006394038136357E-02
         1          7   0.0000000000000000E+00   9.3065523522622026E-02   3.2057050466263086E-04   1.3230069096156381E-03
         1          8   0.0000000000000000E+00   1.1825866811104732E-01   2.6563732791514620E-03   7.9943922298389893E-03
         1          9   2.3003150944954845E-01   1.2349230493768366E+00   5.2098543202350711E-01   1.0407559220834264E-01
         1         10   2.3187076452982172E-01   7.1088023626443653E-01   3.9016466898667357E-01   8.0026665098281255E-02
         1         11   0.0000000000000000E+00   2.2286973383729891E-01   3.6562043005265018E-03   9.3830415308381009E-03
         1         12   0.0000000000000000E+00   2.4964723562246458E-01   1.3544416417744634E-02   3.3918919377737458E-02
         1         13   1.8113278051054715E-01   1.8950642482813391E+00   8.8594641062239254E-01   1.9106623564768210E-01
         1         14   7.3857861825487425E-02   7.9255721529025613E-01   3.6828278651276580E-01   1.0002808153149267E-01
         1         15   0.0000000000000000E+00   3.1866006928864832E-01   1.7981524121999444E-02   3.5465294538486992E-02
         1         16   0.0000000000000000E+00   3.6931917199536124E-01   3.0159060052201866E-02   6.1929279602677280E-02
         1         17   1.3553708981177939E-01   1.9189749013318220E+00   1.0863699260433171E+00   2.0679156005733321E-01
         1         18   4.4117589701607347E-02   9.8464992827547237E-01   4.8141595376801555E-01   1.1856012513272318E-01
         1         19   0.0000000000000000E+00   4.4152749410764475E-01   3.8749576518050041E-02   6.3596824670405491E-02
         1         20   0.0000000000000000E+00   3.9345503040467522E-01   3.5772833724364489E-02   5.6624108517613188E-02
         1         21   2.4126644760185667E-01   1.7778525601036799E+00   1.0378105317650590E+00   1.7019419971729075E-01
         1         22   7.1771125900709984E-02   9.2541521585547659E-01   5.4944900264359309E-01   9.9094116990947972E-02
         1         23   0.0000000000000000E+00   3.4697310029412454E-01   3.9443244546053746E-02   5.5174434294182235E-02
         1         24   0.0000000000000000E+00   2.6421251069473484E-01   3.1865182088618507E-02   4.1109795053443553E-02
         1         25   2.4492589506812396E-01   1.1828780646467565E+00   7.8166621524404978E-01   1.1219464838886051E-01
         1         26   8.0028958391058821E-02   6.9825549901781159E-01   4.1205960598081975E-01   6.7313174092897637E-02
         1         27   0.0000000000000000E+00   2.0032120759673644E-01   2.3470018993701717E-02   2.8269712584863792E-02
         1         28   0.0000000000000000E+00   1.9109347619725661E-01   2.3916353580945689E-02   2.8366653671580078E-02
         1         29   1.8385526628877738E-01   6.8447891953753093E-01   4.3299232127001719E-01   5.9318099090067251E-02
         1         30   4.2159286383257236E-02   3.5095229728298516E-01   2.1401137648515720E-01   3.4943675716447811E-02
         1         31   0.0000000000000000E+00   1.0566455902462266E-01   1.1473184860282469E-02   1.3249260164731411E-02
         1         32   0.0000000000000000E+00   1.0613418331868382E-01   1.3286159838006992E-02   1.4882168371200955E-02
         1         33   7.7436052383793808E-02   2.5503107554919152E-01   1.6694965678036747E-01   2.2783777870651851E-02
         1         34   2.3845509623914990E-02   1.4597230837702665E-01   8.1077213963160449E-02   1.3794573439974176E-02
         1         35   0.0000000000000000E+00   4.8324967386538985E-02   4.7993059707687122E-03   5.4764601511835525E-03
         1         36   0.0000000000000000E+00   3.9566663174674867E-02   5.1199115081906419E-03   5.6457704817368271E-03
         1         37   1.6677530917366224E-02   6.4569304841643235E-02   4.1749975398036356E-02   5.9067607998850623E-03
         1         38   5.1364293471407550E-03   3.7194459401014519E-02   2.0603204674534466E-02   3.8380178674758620E-03
         1         39   0.0000000000000000E+00   1.0990316899278790E-02   1.3237357817724809E-03   1.4759141178794339E-03
         1         40   0.0000000000000000E+00   1.1406319433384562E-02   1.2803262768847170E-03   1.4245292961983609E-03
         1         41   7.1414554204253728E-04   9.8476709916462304E-02   2.1546587415934241E-02   7.8173338225124862E-03
         1         42   5.9506863830469650E-03   1.2885824109246743E-01   4.0551843769357297E-02   1.2305480297074907E-02
         1         43   0.0000000000000000E+00   1.3678187334478738E-02   7.8653300980866165E-04   1.3174522747075828E-03
         1         44   0.0000000000000000E+00   3.2121638471764809E-02   1.2394855672935466E-03   2.4873517778786582E-03
         1         45   3.8774028967327199E-04   4.2097784699791918E-02   1.3750352157220879E-02   5.6799675619579283E-03
         1         46   0.0000000000000000E+00   1.7135314117890117E-02   7.0700178861568216E-04   1.3203924663559507E-03
         1         47   0.0000000000000000E+00   2.2162236336937802E-02   1.2299252733212404E-03   2.4419115501915778E-03
         1         48   0.0000000000000000E+00   8.5172648598586366E-04   8.7420012741881985E-06   3.7682572066105027E-05
         1         49   0.0000000000000000E+00   3.3427726999505380E-03   3.3491635640927055E-05   1.2982847119803379E-04
         1         50   0.0000000000000000E+00   1.5608262808652247E-03   5.5406960441918299E-06   3.7584899899669483E-05
         1         51   2.8628120145804603E-03   2.1394845846887983E-01   5.6854954104046944E-02   1.7348081441776884E-02
         1         52   4.7352411778073804E-02   3.5461409303173519E-01   1.4927320055593638E-01   3.0964697191942194E-02
         1         53   0.0000000000000000E+00   2.0168934765946819E-02   1.7297542226654976E-03   2.5568503341843914E-03
         1         54   0.0000000000000000E+00   5.2126844707605521E-02   3.0733507019352155E-03   4.9216371624372134E-03
         1         55   7.9698069823608394E-04   3.7041175325116894E-02   1.3142763838084938E-02   3.9679402642817897E-03
         1         56   0.0000000000000000E+00   2.9790314072044972E-02   2.3735608135583763E-03   3.8582303930692814E-03
         1         57   0.0000000000000000E+00   2.0142897103493606E-02   8.5874236275291799E-04   1.2335980243629952E-03
         1         58   0.0000000000000000E+00   1.2886289559014314E-03   1.4541170028852143E-05   6.3719429226703379E-05
         1         59   0.0000000000000000E+00   5.6617149822840275E-03   8.5357934303801551E-05   2.9735708263873276E-04
         1         60   0.0000000000000000E+00   1.1871220680541659E-03   6.1525724413350418E-06   3.7494338909933345E-05
         1         61   7.6091963438352020E-05   1.8749802930800169E-02   4.0409798650515296E-03   1.8261066953939120E-03
         1         62   2.1666130873418941E-04   3.8572970263964709E-02   1.1339951912023968E-02   5.2020408999541457E-03
         1         63   0.0000000000000000E+00   6.1000054981429960E-03   7.5151793467509307E-05   1.6350470869552864E-04
         1         64   0.0000000000000000E+00   9.5156385868437037E-03   3.2061312068146203E-04   7.8388426933635909E-04
         1         65   2.1552525866100566E-05   2.2271083823653309E-02   7.2356469191479211E-03   4.3314912238731152E-03
         1         66   0.0000000000000000E+00   1.3012781655583373E-02   6.9261910316324070E-05   1.9355080092179922E-04
         1         67   0.0000000000000000E+00   1.4508198308145892E-02   7.5364994101678382E-04   1.8127795088712243E-03
         1         68   0.0000000000000000E+00   1.9722283629013080E-04   7.9405474722344137E-07   4.2953130213187282E-06
         1         69   0.0000000000000000E+00   6.0662804568203867E-04   3.9730810457513901E-06   1.9943328184982749E-05
         1         70   0.0000000000000000E+00   3.6280146313456672E-04   1.0165739047014421E-06   8.4767294106292864E-06
         1         71   1.8754737284558728E-03   1.0435242693426010E-01   3.1818014705989751E-02   8.9564624402122418E-03
         1         72   3.4248441769477285E-02   2.2317649371682105E-01   1.0421517043577869E-01   2.0733597649676333E-02
         1         73   0.0000000000000000E+00   7.6019761803257689E-03   7.1008215285790191E-04   9.8557623921946428E-04
         1         74   0.0000000000000000E+00   2.6095107895760760E-02   1.7266639050537093E-03   2.5843863718397965E-03
         1         75   2.8776483035668405E-04   1.5610652147083556E-02   5.4345398774331699E-03   1.6308307863143316E-03
         1         76   0.0000000000000000E+00   1.4913523462529865E-02   1.3038599793173508E-03   2.0648426813123636E-03
         1         77   0.0000000000000000E+00   5.5454213216856200E-03   3.1602435362166340E-04   4.2365201237782755E-04
         1         78   0.0000000000000000E+00   4.0497839111063212E-04   4.2805040064738474E-06   1.9826229641842935E-05
         1         79   0.0000000000000000E+00   2.7488232483885524E-03   4.0623178613489451E-05   1.3585257229315476E-04
         1         80   0.0000000000000000E+00   2.5817404615447912E-04   1.4141303412286489E-06   8.1616225709511166E-06
         2          1   2.3312190840720576E-01   3.9129868704370196E-01   3.1144685822093826E-01   1.4612105409192977E-02
         2          2   5.6886328173614069E-08   1.3294247794534047E-03   1.4628423737338866E-04   1.0529225611554717E-04
         2          3   0.0000000000000000E+00   8.7310201200547898E-03   1.1104971068497741E-04   2.8997261426457719E-04
         2          4   0.0000000000000000E+00   2.4857936504766768E-04   1.6671854589728378E-06   6.2069251960650345E-06
         2          5   5.8869048293482917E-01   9.8997774646950243E-01   7.1428590816876503E-01   4.8509695567370135E-02
         2          6   7.9478843334650723E-06   2.4957653976084057E-02   4.4421811671951639E-03   2.5131860220910622E-03
         2          7   0.0000000000000000E+00   6.7848499140709118E-02   2.0072768467190613E-03   4.5179357443726762E-03
         2          8   0.0000000000000000E+00   6.0816698368469438E-03   7.6776480600749395E-05   2.2179810376514607E-04
         2          9   4.7605908786188711E-01   1.4512624046956752E+00   7.8032933797334714E-01   1.2571508146070479E-01
         2         10   4.1775704849352294E-04   1.9897090426747646E-01   5.3275341419928686E-02   2.2779649331068692E-02
         2         11   0.0000000000000000E+00   2.0128878218100063E-01   1.4211663536044363E-02   2.8330324730035633E-02
         2         12   0.0000000000000000E+00   5.6239138935562746E-02   1.3939490389466773E-03   3.2077383109741509E-03
         2         13   1.6053013655728379E-01   1.6190173202095666E+00   7.3656557302553161E-01   1.7532174969218856E-01
         2         14   8.3559778679621072E-03   6.7606152829928379E-01   2.6069935359971352E-01   7.9231936315094703E-02
         2         15   0.0000000000000000E+00   4.3321624149930704E-01   4.0314975375656578E-02   7.2567352344060268E-02
         2         16   0.0000000000000000E+00   2.3558292509706713E-01   1.0110961785219159E-02   1.8982108672519003E-02
         2         17   1.3274923918582832E-01   1.7831642438780420E+00   9.6283190753603110E-01   2.0359303511900434E-01
         2         18   6.4878123831784915E-02   1.0107673699360160E+00   5.5682992871033754E-01   1.1768672270476321E-01
         2         19   0.0000000000000000E+00   5.0560730702105150E-01   4.8945655468188569E-02   7.9580319343764833E-02
         2         20   0.0000000000000000E+00   3.8073115209700786E-01   3.0159950008617584E-02   4.7019957595918781E-02
         2         21   3.2796265878826797E-01   1.7514153684821301E+00   1.0988980052871866E+00   1.7761567472519607E-01
         2         22   1.4671954378410518E-01   9.9072273257412347E-01   5.9768516140162320E-01   1.0602719712031447E-01
         2         23   0.0000000000000000E+00   2.9860596164604508E-01   3.2264356021390737E-02   4.4728488467990338E-02
         2         24   0.0000000000000000E+00   3.3133203672997319E-01   3.9663324818086168E-02   5.1878827718394006E-02
         2         25   3.3783506242941913E-01   1.2611943566469088E+00   8.2411921196163929E-01   1.1414929225576623E-01
         2         26   1.2657163846955233E-01   6.5538074742794827E-01   4.0662528577270290E-01   6.6901423192721979E-02
         2         27   0.0000000000000000E+00   1.9865839884788516E-01   1.9612477398944596E-02   2.4428503786497913E-02
         2         28   0.0000000000000000E+00   1.8752819334852064E-01   2.7297512817378966E-02   3.0633057367098770E-02
         2         29   1.8132467395103602E-01   6.2043532709087679E-01   4.2802275297031434E-01   5.7253009815497448E-02
         2         30   6.7529897873736672E-02   3.4240074742212057E-01   2.1029496302640668E-01   3.6116376711121376E-02
         2         31   0.0000000000000000E+00   1.0599282521770613E-01   1.1999713972782109E-02   1.4155674604245133E-02
         2         32   0.0000000000000000E+00   8.8059640268121631E-02   1.3247383737253472E-02   1.4057949387656291E-02
         2         33   6.3942514622931462E-02   2.5365270302303378E-01   1.6215442792632093E-01   2.2392770009193548E-02
         2         34   2.6387997869495736E-02   1.3699651481397473E-01   8.0487492488923632E-02   1.5256024222253034E-02
         2         35   0.0000000000000000E+00   3.7810890618724724E-02   5.0957470921698562E-03   5.6530714270284143E-03
         2         36   0.0000000000000000E+00   4.1818427212633805E-02   5.1844058891511741E-03   5.6967443068691205E-03
         2         37   1.6707895119664758E-02   6.5118359839182252E-02   4.1206409349068926E-02   5.9796323437925208E-03
         2         38   4.5510615195292039E-03   3.6763622118111142E-02   2.0153605640469644E-02   3.9324522633739827E-03
         2         39   0.0000000000000000E+00   1.2460034491210440E-02   1.2975203024367331E-03   1.4299994101326827E-03
         2         40   0.0000000000000000E+00   1.3027187966297565E-02   1.3576755698885925E-03   1.5391632985402321E-03
         2         41   2.9515411598935674E-02   2.1829386447138971E-01   8.3195553298865882E-02   1.9649924467387062E-02
         2         42   1.5113523675569860E-03   7.6106480126562709E-02   2.0638859766182467E-02   6.5872245721993695E-03
         2         43   0.0000000000000000E+00   3.0676250831383863E-02   3.0790288611642356E-03   5.2863697791317929E-03
         2         44   0.0000000000000000E+00   2.2304366917945868E-02   8.1149466635704328E-04   1.3257539656305192E-03
         2         45   1.6818911287669779E-05   6.6149116801068478E-03   1.3026845999415438E-03   5.8977479308319780E-04
         2         46   0.0000000000000000E+00   5.6072464977240406E-03   3.9087730658733921E-04   6.7161067443690032E-04
         2         47   0.0000000000000000E+00   4.0138255614856101E-03   1.1205714784279878E-04   1.7205432814171393E-04
         2         48   0.0000000000000000E+00   2.0495475095802761E-03   2.4100934408427908E-05   1.0633309195880458E-04
         2         49   0.0000000000000000E+00   1.6136945338973523E-03   2.9845920212860718E-05   8.9266038632161701E-05
         2         50   0.0000000000000000E+00   5.1198322853822115E-04   2.2722146008973713E-06   1.4721940363657943E-05
         2         51   2.2520046829944837E-02   3.2347870163254078E-01   1.0662949102642781E-01   2.5643022527046942E-02
         2         52   7.2818942886322046E-03   2.5467851933840258E-01   8.6933604215040788E-02   2.4193890335164312E-02
         2         53   0.0000000000000000E+00   3.1523612053416757E-02   3.0820963431838822E-03   4.7062299831189605E-03
         2         54   0.0000000000000000E+00   5.9526974106459171E-02   3.3658406057912732E-03   5.2537689244446665E-03
         2         55   1.0142550040328643E-04   1.6155032872249744E-02   3.7002445955600211E-03   1.4858674612932732E-03
         2         56   0.0000000000000000E+00   1.7434493578445422E-02   1.4418052272152061E-03   2.2656337940644045E-03
         2         57   0.0000000000000000E+00   8.4838515252936095E-03   3.0922659791715075E-04   4.3160485114261872E-04
         2         58   0.0000000000000000E+00   2.3310027255292092E-03   2.6279565267534275E-05   1.1922696119198061E-04
         2         59   0.0000000000000000E+00   4.5788617254311536E-03   9.0227617484151445E-05   2.6520443526625203E-04
         2         60   0.0000000000000000E+00   7.0987641686835648E-04   3.6244459630415253E-06   2.1767953356662556E-05
         2         61   3.6364440259273796E-03   5.6451849649310180E-02   2.2044670916742774E-02   6.4396356373469747E-03
         2         62   2.2972374336894779E-04   1.4763634743897644E-02   4.3995652197545742E-03   1.5171191787352555E-03
         2         63   0.0000000000000000E+00   1.1338563263767414E-02   9.1963200672500920E-04   1.6925577150820608E-03
         2         64   0.0000000000000000E+00   4.1022730716908434E-03   1.3720933663839032E-04   2.5018246169666088E-04
         2         65   3.6581396909747276E-07   5.6201821416749392E-04   9.2718325051740098E-05   5.8845498358484637E-05
         2         66   0.0000000000000000E+00   6.2876016000691540E-04   3.0151901494599388E-05   6.2112712062700718E-05
         2         67   0.0000000000000000E+00   3.3267626012560043E-04   6.8060471077153045E-06   1.3619339508243555E-05
         2         68   0.0000000000000000E+00   4.5937936561000163E-04   4.2655664109333077E-06   2.0395175082386435E-05
         2         69   0.0000000000000000E+00   2.4378992025590344E-04   2.4674422016906029E-06   8.9893306360844105E-06
         2         70   0.0000000000000000E+00   6.3317710464344708E-05   2.1605196826093620E-07   1.7502432430859049E-06
         2         71   4.1302244816456878E-03   1.4064648630776008E-01   4.7236814965531199E-02   1.2437469699443990E-02
         2         72   5.4124194064150422E-03   1.7154931863023112E-01   6.5962213919271137E-02   1.7966145209540142E-02
         2         73   0.0000000000000000E+00   1.4192591207874330E-02   9.7122859038785403E-04   1.3494034549753802E-03
         2         74   0.0000000000000000E+00   3.6910143575787660E-02   2.4014936611559358E-03   3.8244688107575927E-03
         2         75   5.5529882870417741E-05   6.6919454716852407E-03   1.7853766481435265E-03   6.7888964271979949E-04
         2         76   0.0000000000000000E+00   9.1401529585228725E-03   8.1901507905625848E-04   1.2378348641835304E-03
         2         77   0.0000000000000000E+00   3.5239426096305248E-03   1.4033853958080478E-04   1.8585203042330553E-04
         2         78   0.0000000000000000E+00   5.0357506736112344E-04   5.6437300358270655E-06   2.5487708620867732E-05
         2         79   0.0000000000000000E+00   2.0517705330422623E-03   4.5570070812667950E-05   1.3325064695531141E-04
         2         80   0.0000000000000000E+00   1.7471676600184022E-04   1.0354297073006251E-06   6.2691555982700156E-06
         3          1   1.9039145121312731E-05   1.6142748427944022E-02   3.8355218337465818E-04   7.0570377788544759E-04
         3          2   7.1473367820649371E-05   9.3139798092640360E-03   1.7211568128417049E-03   8.3457192572807134E-04
         3          3   0.0000000000000000E+00   1.7013273187251298E-05   2.8482171645191109E-07   1.1861847595826984E-06
         3          4   0.0000000000000000E+00   1.1942257979157221E-03   3.0630569002133730E-05   7.6231689892678652E-05
         3          5   9.7411587912572155E-04   1.2952936007184046E-01   9.9370291861702372E-03   7.1980422745224438E-03
         3          6   2.7256055514545898E-03   8.1822517960047067E-02   3.1110735891879182E-02   1.1338531164291175E-02
         3          7   0.0000000000000000E+00   6.8931832636563034E-04   1.6936323383043856E-05   5.8062393183934176E-05
         3          8   0.0000000000000000E+00   1.7230216744772462E-02   8.2959246534023269E-04   1.6277568877151754E-03
         3          9   1.8842485212847915E-02   3.9988655785680355E-01   1.1333484620853888E-01   4.2107146454797434E-02
         3         10   3.5953011294137950E-02   4.4552599627690870E-01   2.2026623361735381E-01   6.0073742888803697E-02
         3         11   0.0000000000000000E+00   1.0321776715350863E-02   4.0808059670818569E-04   1.1024588736823283E-03
         3         12   0.0000000000000000E+00   9.7635326384508739E-02   9.0257983762114351E-03   1.4127682180974668E-02
         3         13   1.5110839890930469E-01   1.0394933052071191E+00   5.5739042554828588E-01   1.3191106864383922E-01
         3         14   1.5846791424967949E-01   9.9549242908958846E-01   6.2484084019089314E-01   1.2919843049065358E-01
         3         15   0.0000000000000000E+00   5.8078877234256025E-02   4.1810512428518505E-03   8.3398977640613513E-03
         3         16   0.0000000000000000E+00   3.1552395875235845E-01   4.0208765548220671E-02   5.1167994029586626E-02
         3         17   4.8822599874569378E-01   1.8150065163062497E+00   1.2011575213909138E+00   2.0249275184464643E-01
         3         18   2.0629975236460249E-01   1.1583503632954988E+00   7.5860754475132397E-01   1.3521709495814904E-01
         3         19   0.0000000000000000E+00   1.4875276148587147E-01   1.9437739144458253E-02   2.6538285752779396E-02
         3         20   0.0000000000000000E+00   4.9901502134861109E-01   7.6036664866490564E-02   8.0344727412022782E-02
         3         21   5.9088668325569105E-01   1.8206843860620026E+00   1.2226598097784251E+00   1.7613482180270343E-01
         3         22   2.0608959865588605E-01   8.2881791579268804E-01   5.0006448315474272E-01   9.2987328043710585E-02
         3         23   0.0000000000000000E+00   2.1243880602378315E-01   4.3743139942455336E-02   4.0031825153263069E-02
         3         24   0.0000000000000000E+00   3.0987477464324342E-01   6.7260863541011254E-02   5.8878427219665970E-02
         3         25   3.4353679367369933E-01   1.1733754673259151E+00   7.2752252733241118E-01   1.0901994395656182E-01
         3         26   8.9828969887273930E-02   5.7749575112889251E-01   3.0397331864876181E-01   6.3039469291730876E-02
         3         27   0.0000000000000000E+00   1.6588206668074584E-01   4.9709081268597334E-02   3.4713913600745709E-02
         3         28   0.0000000000000000E+00   1.5166795049838994E-01   3.7816576530694271E-02   2.6807893219786102E-02
         3         29   1.5655949315594489E-01   6.0801178342221729E-01   3.5564523609225085E-01   5.7284227239298463E-02
         3         30   6.5021307875941070E-02   3.1715403223371491E-01   1.8598328018156352E-01   3.9032818173699919E-02
         3         31   0.0000000000000000E+00   9.7391341263143208E-02   2.9357979537033337E-02   1.9049603452719988E-02
         3         32   0.0000000000000000E+00   8.2963602252924512E-02   2.1338552717080961E-02   1.4949908556513927E-02
         3         33   6.9014058252193575E-02   2.3244215787259759E-01   1.4876865716351451E-01   2.4217659493306159E-02
         3         34   2.8697365683466893E-02   1.3083605191156586E-01   7.8978862440142517E-02   1.5742532665466932E-02
         3         35   0.0000000000000000E+00   3.6600246105955185E-02   9.4623274649912829E-03   6.5789293191584617E-03
         3         36   0.0000000000000000E+00   3.7010445103600811E-02   1.0266400402989191E-02   7.1153033657015982E-03
         3         37   1.8442457086103540E-02   6.2923950145630320E-02   4.1033098513209493E-02   6.6267182849920787E-03
         3         38   6.1272251420352534E-03   3.4607583872417455E-02   2.0110236168688376E-02   3.8882422541135545E-03
         3         39   0.0000000000000000E+00   8.2165621686386171E-03   1.7762295446308064E-03   1.4523450516944491E-03
         3         40   0.0000000000000000E+00   1.0346928382269319E-02   2.8752015547869811E-03   1.9686992982337857E-03
         3         41   1.1155099878422236E-03   1.8569105885938290E-02   6.7711947430087894E-03   2.5059673762933784E-03
         3         42   1.4372621559660783E-03   3.1639661004560449E-02   1.1990004722145446E-02   4.3841097006201918E-03
         3         43   0.0000000000000000E+00   2.0024920057531191E-03   2.8979953501527929E-04   3.3079484398799416E-04
         3         44   0.0000000000000000E+00   5.1347154843635239E-03   8.1207678799619576E-04   8.3752136407936478E-04
         3         45   2.5699378090957812E-04   1.3886230478224690E-02   5.2150738279845574E-03   2.1411980368713857E-03
         3         46   0.0000000000000000E+00   2.1043853929634160E-03   2.5468546219891076E-04   3.3291897691155905E-04
         3         47   0.0000000000000000E+00   3.7331621968104516E-03   6.6802228449810476E-04   6.5545781277691817E-04
         3         48   0.0000000000000000E+00   6.9288231609811575E-05   2.0398647898800958E-06   6.2142645446725010E-06
         3         49   0.0000000000000000E+00   7.9942824412820249E-04   3.1680426078989326E-05   6.3679038943444916E-05
         3         50   0.0000000000000000E+00   8.1824682597836167E-04   1.7460201642210740E-05   6.0172336286559484E-05
         3         51   7.8450929700938071E-03   7.4964058449597332E-02   3.2228680957030985E-02   9.5026652213415583E-03
         3         52   2.2671553539649187E-02   1.6449703548987166E-01   8.3501127625928540E-02   2.0544251760331294E-02
         3         53   0.0000000000000000E+00   7.0511626949932510E-03   1.1536617280750526E-03   1.1147828764372283E-03
         3         54   0.0000000000000000E+00   1.9096769435812601E-02   2.8720165023314601E-03   2.6230680685883057E-03
         3         55   8.6829056526042568E-04   2.2691153747988468E-02   8.9872775756060872E-03   3.4469281681907514E-03
         3         56   0.0000000000000000E+00   8.4857068299884035E-03   1.3070068594971951E-03   1.4243089245441309E-03
         3         57   0.0000000000000000E+00   5.6158716411644849E-03   1.1929946076168158E-03   9.8967146117134907E-04
         3         58   0.0000000000000000E+00   1.6445301524461019E-04   6.0059120663442036E-06   1.7733108002117657E-05
         3         59   0.0000000000000000E+00   2.5246617900300671E-03   1.5076676069392540E-04   2.7457297454565246E-04
         3         60   0.0000000000000000E+00   8.0331243376869591E-04   2.2174688462350336E-05   7.5776310571291287E-05
         3         61   2.5674897329075721E-05   2.0344032702848932E-03   3.9746480127965573E-04   2.0373251438969342E-04
         3         62   3.6579364090863527E-05   3.3216225896072885E-03   1.0678672699658497E-03   4.8199129274784108E-04
         3         63   0.0000000000000000E+00   1.1606842187973431E-04   7.4239097177141171E-06   1.2014368100346242E-05
         3         64   0.0000000000000000E+00   6.5238755779035485E-04   5.7268397080385921E-05   7.4417617196104828E-05
         3         65   5.2153316815464081E-06   2.2131121951467617E-03   7.0425570729815330E-04   3.3076766417571192E-04
         3         66   0.0000000000000000E+00   1.1934881347360672E-04   8.4478105856260941E-06   1.4727828100430055E-05
         3         67   0.0000000000000000E+00   6.7502896668104927E-04   7.8883320340052400E-05   9.7671678694040943E-05
         3         68   0.0000000000000000E+00   2.7180197880949234E-06   5.5348990431493742E-08   2.1459888921142580E-07
         3         69   0.0000000000000000E+00   2.8823305535427635E-05   5.3121472155713870E-07   1.4647902526762058E-06
         3         70   0.0000000000000000E+00   1.2470994626803707E-04   2.1778428326394574E-06   8.5257282935853010E-06
         3         71   5.9115537312041007E-03   4.5996525474186319E-02   2.1036713852323537E-02   5.6600897786242858E-03
         3         72   1.9603256055927106E-02   1.2049379761536091E-01   6.5809061040097747E-02   1.4602739158140270E-02
         3         73   0.0000000000000000E+00   3.6340046930989755E-03   6.2606236391203726E-04   5.5891678235982906E-04
         3         74   0.0000000000000000E+00   1.0851596407024905E-02   1.6340747985533787E-03   1.4286731971598925E-03
         3         75   2.5401934006968776E-04   8.4932511409161159E-03   3.2371006330538560E-03   1.2200452560158542E-03
         3         76   0.0000000000000000E+00   4.7059300129958011E-03   8.2024792048793606E-04   8.3014387305508567E-04
         3         77   0.0000000000000000E+00   2.0293717213557970E-03   4.2477518474795832E-04   3.1602226908939248E-04